LAMMPS data file via write_data, version 2 Aug 2023, timestep = 0, units = metal

2 atoms
1 atom types

0 4 xlo xhi
0 4 ylo yhi
0 4 zlo zhi

Masses

1 45

Atoms # atomic

1 1 0.04 0.04 0.04 0 0 0
2 1 2.04 2.04 2.04 -1 -1 -1

Velocities

1 0 0 0
2 0 0 0
