hard_core.lammps-data (written by ASE) 

1972 	 atoms 
1  atom types
0.0      140.45181934219929  xlo xhi
0.0      144.15981458736252  ylo yhi
0.0      2.7587342746349166  zlo zhi


Atoms 

     1   1      13.000805602387144      55.561595776251046    -0.33377745752669841
     2   1      13.001656365015409      60.066572455086458    -0.36547528523121342
     3   1      11.701717210806734      62.319070250221507     0.53618429601477735
     4   1       13.00267064268853      64.571570779146882    -0.39820865777634207
     5   1      11.702779478874932      66.824073112549769     0.50374469555892443
     6   1      10.402887063845906      69.076574701833948     -1.3524224165986407
     7   1      13.003804976401382      69.076574434692247     -0.4316500482126292
     8   1      11.703927354232796      71.329074381412511      0.4708129377163528
     9   1      10.404029931355931         73.581571897684      1.3739715493170395
    10   1      13.004998053582366      73.581571885781784       2.293309861390056
    11   1      11.705097627711426      75.834067009429305       3.196489106385652
    12   1      13.006179216023078      78.086559961905593      2.2596010885762934
    13   1      11.706223618001774      80.339052457137456      3.1636791544565233
    14   1       13.00727971935186      82.591544885183168      2.2263518851163862
    15   1      11.707245426272245      84.844040242149745      3.1314751072458473
    16   1      13.008243421086263       87.09654027814355      2.1939243284844303
    17   1      20.802074260076814      42.047172602092324    -0.22029886968642931
    18   1       19.50169569486048      44.299494544134113     0.68004080753328955
    19   1      18.201387529099033      46.551855292341536      -1.178317132791971
    20   1      20.802259361343641      46.551913490937686    -0.24990613494734315
    21   1      16.901148868533546      48.804250850896338    -0.27783181895109399
    22   1      19.501998647700919      48.804289657248809     0.64976681274008974
    23   1       18.20181123515399      51.056700472303788     -1.2091326234826605
    24   1      20.802646210964184      51.056730962263941    -0.28173633783397134
    25   1      15.600976365252171       51.05667635086126     0.62283240501115333
    26   1       14.30086442996131      53.309126458687295     -1.2349926509051896
    27   1      16.901691819009233      53.309140104214563    -0.30905977230015003
    28   1       19.50251572840196      53.309157650020516     0.61743299784666972
    29   1      18.202453836700204      55.561611326430899     -1.2418239149661434
    30   1      20.803269162263881      55.561623039444939    -0.31568052948315584
    31   1      15.601632728629871      55.561602471444573     0.59132178758309206
    32   1      14.301624470125303      57.814081693893428       -1.26665828869996
    33   1      16.902450444127069      57.814085233474358    -0.34196369527095238
    34   1      19.503268643675998      57.814090172961798     0.58320461788219524
    35   1      18.203322758340096      60.066574399121905     -1.2761758801834493
    36   1      20.804142501658973      60.066576417072206    -0.35151480739857377
    37   1      15.602493824823092      60.066573152937558     0.55834542405026477
    38   1      14.302571426405779      62.319069752384927     -1.2995744840612244
    39   1      16.903417439308747      62.319069379175716    -0.37628660014275694
    40   1      19.504254378757885      62.319069205609154     0.54735822067803119
    41   1      18.204398129626899      64.571569217156693     -1.3118700602969242
    42   1      20.805000643658278      64.571513787328442    -0.38886222712782226
    43   1      15.603538341272282      64.571570009461382      0.5241931567740219
    44   1       14.30367169529497      66.824072522772468     -1.3334279377903739
    45   1      16.904557873717962      66.824071870776081    -0.41167957670052524
    46   1      19.505437188002428      66.824071150237643     0.51028304718796536
    47   1      18.205628883264136      69.076573789919635     -1.3484916726477858
    48   1      20.806244349628095      69.076530051991341    -0.42730354107752366
    49   1      15.604719095329751      69.076574132744383      0.4892329295285307
    50   1      14.304869243456771      71.329074331253352     -1.3678423926626251
    51   1      16.905809450559975      71.329074273859021    -0.44771578386411615
    52   1      19.506747724573298      71.329074207774369     0.47246563148009835
    53   1      18.206936784920906      73.581571856559378      1.3731820437946507
    54   1      20.807599657603475       73.58155516955901      2.2924780927222539
    55   1      15.605966966260304      73.581571872185904      3.2126258720465763
    56   1      14.306092346230693      75.834066819660407      1.3563331509781715
    57   1      16.907090358363913      75.834066603715542      2.2748165262831135
    58   1      19.508092147614519      75.834066356661666      3.1931907745236852
    59   1      18.208228980155244      78.086558861820635      1.3362080987735969
    60   1      20.808963430823326      78.086570537476106      2.2536231601347789
    61   1      15.607201200313927      78.086559442581844      3.1773596722058732
    62   1        14.3072649651634       80.33905172597035      1.3220576921467311
    63   1      16.908313374520979      80.339050944467772      2.2389398875669042
    64   1      19.509369757296273      80.339050117194802       3.155557753405716
    65   1      18.209415629509465      82.591543712430578      1.2998390618227555
    66   1      20.810497271043538      82.591543304895055      2.2154343197337711
    67   1      15.608343433788271       82.59154425961755      3.1426190976472492
    68   1      14.308319476140959      84.844040300926309      1.2884722135120197
    69   1      16.909401813766365      84.844040685748922      2.2038534755972856
    70   1      19.510493185283568      84.844041540613532      3.1188354223242438
    71   1      18.210426475326443      87.096545387532501      1.2645431409789942
    72   1      20.811530438994016      87.096549724662182      2.1785178816955368
    73   1      15.609330940009123      87.096542355727493      3.1088148661196997
    74   1       14.30920680166053      89.349049630628159      1.2559347288663454
    75   1      16.910301939616048      89.349055760696515      2.1699614346063756
    76   1      19.511403700146239      89.349063977063338      3.0834818151957952
    77   1      18.211220769545157      91.601586162372897      1.2307057880693353
    78   1      20.812320554182808      91.601603101131275      2.1432713875522591
    79   1      15.610124997872921      91.601573109928808      3.0762912904076325
    80   1      16.910988293532778       93.85411617767214      2.1375838768527138
    81   1      19.512076942873033      93.854139879302821      3.0498505920464414
    82   1      18.211788443888196      96.106684651579911      1.1986120947931658
    83   1      20.812861929515034      96.106723502392441      2.1100033933641318
    84   1       15.61071262554354      96.106653603453552      3.0453108485816136
    85   1      16.911461717100195       98.35923655574237      2.1069472294210536
    86   1      19.512519234860825      98.359284314969884      3.0181813495219441
    87   1      18.212144243793301      100.61185131035808      1.1684443988745625
    88   1      20.813176916854097      100.61192046428299      2.0788986034853987
    89   1      19.512758192652839      102.86450217112912      2.9886055197312609
    90   1      20.813303924769656      105.11719242120425      2.0500324524975624
    91   1         27.304894316252       30.78618553040015     0.79352194470640769
    92   1      26.004228174834054      33.038304243652313     -1.0639979557071202
    93   1      28.605313685266712      33.038564531621049     -0.1315793314363759
    94   1      24.703605244746758      35.290459355645218    -0.16308941389423781
    95   1      27.304653709621764      35.290680008213165     0.76880139119228796
    96   1      26.004043609688843      37.542836371796014     -1.0898607041369868
    97   1      28.605080890531866      37.543050813141058    -0.15769359749286116
    98   1      23.403033929282252      37.542654624466856     0.73757428926134105
    99   1      22.102521638978018      39.794892219719785     -1.1206750251899358
   100   1      24.703492484930731      39.795037220091899     -0.1900263571643559
   101   1      27.304487553917376      39.795210300527707     0.74147508199281309
   102   1      26.003961662519234      42.047418967808959     -1.1183160727192694
   103   1      28.604939585803013      42.047581814531597    -0.18663072607110209
   104   1      23.403008034037992      42.047284226273341     0.70964629091428599
   105   1       22.10259593751266      44.299577060289145     -1.1494971096711064
   106   1      24.703511023754011      44.299677757440307    -0.21951059869183198
   107   1      27.304445090619492      44.299800924559349     0.71135443595318137
   108   1      26.004035374723923      46.552074144119928     -1.1494992088958884
   109   1      28.604669909649484      46.552015059983816    -0.21858473431426678
   110   1      23.403140798511771      46.551985288047419     0.67924866945579243
   111   1      22.102852991752254      48.804338077532414     -1.1806799047356213
   112   1      24.703714628180673      48.804398723688436    -0.25161845032595131
   113   1      27.304301599460185      48.804319341153757     0.67831826482875324
   114   1      26.004039301003061      51.056680748166904     -1.1834535166429656
   115   1      28.604586209475837      51.056576947557836    -0.25363734368428797
   116   1      23.403483127240921      51.056769654946208      0.6463670944162403
   117   1      22.103337130100641      53.309180283597605     -1.2141751296053716
   118   1      24.703882981699834      53.309091184881893     -0.2863150789040449
   119   1      27.304402516484398       53.30897741037117     0.64236187663720246
   120   1      26.004347436667143       55.56142473394587     -1.2201097822200948
   121   1      28.604770627827325       55.56128203468915    -0.29176123485017225
   122   1      23.403840822731329       55.56154472592722     0.61110963562391407
   123   1      22.104078865847743      57.814097013483405     -1.2498207345353054
   124   1      24.704442261123308      57.813925691195472     -0.3234607054608028
   125   1      27.304821704531317      57.813782423594091     0.60361543220308689
   126   1      26.004983320176454      60.066326964445288     -1.2592337773460291
   127   1      28.605314638280714       60.06616563111578    -0.33273994919655703
   128   1      23.404589262324524      60.066471003069033     0.57369418032978758
   129   1      22.104763975181388      62.318993818259415      -1.287286764469034
   130   1      24.705215489764925      62.318883569726644    -0.36272192083750648
   131   1      27.305568554018727      62.318741539099534     0.56239899440601682
   132   1      26.005906123897496      64.571322179684159      -1.300422894318586
   133   1      28.606234139620497      64.571193690316605    -0.37613445854690292
   134   1      23.405511902274196      64.571429475407413     0.53451220040033354
   135   1      22.105884786254808      66.823979320021962     -1.3261933737381333
   136   1        24.7063116782696      66.823897291810496    -0.40364189858903393
   137   1      27.306669111260391      66.823801196685963     0.51924373171816096
   138   1      26.007155131499879      69.076396753119013     -1.3430829699678526
   139   1      28.607514491738517      69.076321398855498    -0.42126784446799204
   140   1      23.406751942554354      69.076464035124204     0.49407137682145508
   141   1      22.107211527856215      71.329019194725234     -1.3659684424591174
   142   1      24.707664406423653      71.328974315119964    -0.44558644015493609
   143   1      27.308064308149348      71.328929978234129     0.47487861943116394
   144   1      26.008615311770789      73.581511229055693      1.3722718160875558
   145   1      28.609043336036365      73.581497566850985      2.2914739470251915
   146   1      23.408155982048608      73.581529730180264       3.211758470954055
   147   1      22.108617939871159      75.834061700128402      1.3527603008193603
   148   1      24.709141965415231      75.834061983758332      2.2709237668921531
   149   1      27.309618199799619      75.834076755383478      3.1889114617444743
   150   1      26.010152823134117      78.086618972579942      1.3290082743980967
   151   1      28.610663471805282      78.086673150430343      2.2456146796948895
   152   1      23.409609771368999      78.086581328856809      3.1708138790347506
   153   1      22.110028547672517      80.339068546291145      1.3131797174179125
   154   1      24.710635648773771      80.339125972116577      2.2291928682116851
   155   1      27.311185667347416      80.339206366015532      3.1447916137715373
   156   1      26.011642368604278      82.591708772603965      1.2866884937088683
   157   1      28.612218491327404      82.591825225811917      2.2008711769954994
   158   1      23.411051535460992      82.591623770448294      3.1306682126825374
   159   1      22.111282052024869      84.844101688874318      1.2746543037785525
   160   1      24.711995620249112       84.84418599942633      2.1886856154627838
   161   1      27.312625191807296      84.844310841245658       3.102109152606265
   162   1      26.012951245189647      87.096762549986721      1.2460370149618731
   163   1      28.613587572359968      87.096943821917961      2.1580927906104552
   164   1      23.412254422164242      87.096635685348915      3.0919672905615361
   165   1      22.112511916895489      89.349074982105904      1.2376916654186203
   166   1      24.713195506540721      89.349201891315261      2.1500086094378443
   167   1      27.313870618835743      89.349379979412021      3.0615610121861092
   168   1      26.014073766561623      91.601805935461257      1.2076143730694604
   169   1      28.614727642328038      91.602041878530557       2.117913359446761
   170   1      23.413423384912537      91.601625154413938      3.0551748013071451
   171   1      22.113165817145891      93.854170067425642      1.2027266004463126
   172   1       24.71425299491785      93.854208677724188      2.1135938926127138
   173   1      27.314874400324996      93.854452956792159      3.0236336385546969
   174   1      26.014992312201787      96.106833853938426      1.1717876619574525
   175   1      28.615588521562398      96.107147849631886      2.0807220489226617
   176   1      23.413930858890033      96.106772304226482      3.0206707112558426
   177   1      22.113569791300407      98.359343386528138      1.1699807655702277
   178   1      24.714610343610673      98.359416701469073      2.0797306500328805
   179   1      27.315637066563209      98.359508002672911      2.9886014111461678
   180   1      26.015202656579483      100.61210891268986      1.1387402433595095
   181   1      28.616187501564337      100.61223661377481      2.0466810265543778
   182   1       23.41419762873398      100.61200508538435      2.9886036320305402
   183   1      22.113760456740795      102.86459744340267       1.139576371498253
   184   1      24.714745775180489      102.86471279934101      2.0484923331818043
   185   1      27.315709985400009      102.86485271640335      2.9565347034387717
   186   1      26.015217708962041      105.11746891239099      1.1084700305894986
   187   1      28.616138041561381      105.11764953480075      2.0157450261811771
   188   1      23.414271573388501      105.11731822187291      2.9590280936249327
   189   1       22.11378410831508      107.36992401130038       1.111529879702478
   190   1      24.714714551161549      107.37008407248054      2.0198634562531019
   191   1      27.315619695647538      107.37027368491545      2.9273576394598204
   192   1      26.015095856455208      109.62289439151715      1.0808922369415619
   193   1      28.615960212398768       109.6231251463293      1.9877688963800213
   194   1      27.315423608130221      111.87574668458022      2.9009198284010766
   195   1       28.61570696864877      114.12863671640589      1.9625429976086646
   196   1      36.409472506416883      24.030822987411057   -0.043998079017283698
   197   1      32.507494501081879      26.282404546120578   -0.076438524310797562
   198   1      35.108693850627034      26.282812932423482     0.85795379922851989
   199   1      33.807921155913625      28.534810576456753     -0.9994160480353127
   200   1      36.409127004748576      28.535230766485714   -0.064450132023919471
   201   1      31.206743805030221      28.534433817892175     0.82521983826883671
   202   1      29.906013698369005      30.786484663821483     -1.0323325450942979
   203   1      32.507163125723281      30.786824747502095   -0.098602979703563021
   204   1      35.108343816934266      30.787209438747631     0.83602812122975378
   205   1      33.807578659653494      33.039208018596909     -1.0228182571248825
   206   1      36.408762114051456      33.039600341458893   -0.087619140889101499
   207   1      31.206429748829276      33.038864235759334     0.80170496715082984
   208   1      29.905731921060489      35.290937243549834     -1.0571701100620916
   209   1      32.506843128465071      35.291236376365461    -0.12346571488961278
   210   1      35.107990269206255      35.291582944948111     0.81125241180534413
   211   1      33.807254171287425      37.543600660159051     -1.0491772322492681
   212   1      36.408122379727104      37.543688419853879    -0.11395936408296344
   213   1      31.206149747819921      37.543303522037526     0.77541837610918218
   214   1      29.905511234148182      39.795416907459618     -1.0848221506916247
   215   1      32.506367763765887      39.795503762036923    -0.15137440444036598
   216   1      35.107287485239965      39.795666937164953     0.78319417409224346
   217   1      33.806517141062592      42.047668502476064      -1.078892116190231
   218   1      36.407353048205898      42.047733147868108    -0.14388508999442129
   219   1      31.205707018935627      42.047600216910965     0.74604947340824224
   220   1      29.905140721348218       44.29977400610187     -1.1155469365027173
   221   1      32.505868263360064      44.299773101945405    -0.18263030638010941
   222   1      35.106605101999698      44.299772402611723     0.75149048575827149
   223   1      33.805972980296339      46.551907669438002     -1.1122465033596554
   224   1      36.406653261738285       46.55185842024585    -0.17781671439204433
   225   1       31.20532433807934      46.551965659105633     0.71336841924377803
   226   1      29.904894548270168      48.804236256847936     -1.1495016829547191
   227   1       32.50546533615443      48.804135149272213    -0.21748017185041937
   228   1      35.106054190546367      48.804035043587078     0.71579665792236125
   229   1      33.805600050789536      51.056309707555748      -1.149504665793182
   230   1      36.406143624564493      51.056180375417867    -0.21613592438261037
   231   1      31.205092549789207      51.056447321615671     0.67720829093999335
   232   1      29.904860552550542      53.308833870221271     -1.1867592702489269
   233   1      32.505300522685587      53.308673582907147    -0.25607149262575185
   234   1      35.105760052752899      53.308511439480661     0.67585746865925922
   235   1      33.805550250573006      55.560934879628221     -1.1907768309301234
   236   1       36.40595262710486      55.560746143840426    -0.25906259375398105
   237   1      31.205158363225014      55.561113851160258     0.63754253756573831
   238   1      29.905168826875549      57.813616199591003     -1.2272228918073731
   239   1      32.505511027814286       57.81343445513609    -0.29836226349987721
   240   1      35.105852072990508      57.813237297157578     0.63163291706038227
   241   1      33.805932900496458       60.06580108609792     -1.2359188832354648
   242   1      36.406206967597988      60.065582069381158    -0.30652887166430942
   243   1      31.205628271040251      60.065991405804461     0.59456107591056029
   244   1      29.905878446466708       62.31858483517275     -1.2705679282589815
   245   1      32.506171693053346      62.318413508050114    -0.34403531246389335
   246   1      35.106426509515046      62.318214895416261     0.58341261657024701
   247   1      33.806801878207018      64.570884862931266     -1.2844420441138911
   248   1      36.407008127820816      64.570683543483426    -0.35804374730916277
   249   1      31.206537171585978      64.571050602954756     0.54873219765780967
   250   1      29.906995611518326      66.823691648466365     -1.3162041757079468
   251   1       32.50729200691331      66.823565587608371    -0.39243806409507287
   252   1      35.107524856630874      66.823410183223743     0.53191009430244474
   253   1      33.808138877489675      69.076131745833692     -1.3354649628885877
   254   1      36.408361020660053      69.075997669631121    -0.41260543809955746
   255   1      31.207853749741389      69.076236148274049     0.50082883092792019
   256   1      29.908447873842093      71.328882714135787     -1.3632840905318224
   257   1       32.50879917339573      71.328827229890479    -0.44258155817389222
   258   1      35.109082482718904      71.328753891315742     0.47828392600007724
   259   1      33.809822460645755      73.581467424996418      1.3709820058172602
   260   1      36.410129288888882      73.581437010412685      2.2900044177996901
   261   1      31.209459313369784      73.581484650024763      3.2106236738855869
   262   1      29.910086157662988      75.834099927318917      1.3479629729230811
   263   1      32.510531654002925      75.834128778393463      2.2655099546148922
   264   1      35.110916545552712      75.834160991920356      3.1827721894903598
   265   1      33.811645794742731      78.086818907997312      1.3188746439165084
   266   1      36.412067986560352      78.086912125524194      2.2340935896012097
   267   1      31.211173263667394      78.086738643517876      3.1618388327818834
   268   1      29.911734108600623      80.339302333766753        1.30116717873596
   269   1      32.512280009991585      80.339417167801074      2.2156967340566514
   270   1      35.112780807636668      80.339559983625946      3.1295327159549693
   271   1      33.813380152523884      82.592140643284409      1.2683783648466107
   272   1      36.413910636138695      82.592357428884483      2.1801539008331745
   273   1      31.212805377674357      82.591967190395778      3.1143875327853858
   274   1       29.91323487080934      84.844475436772882      1.2560770097180103
   275   1       32.51385201109705      84.844672579061395      2.1679290537154814
   276   1      35.114447053457354      84.844915369439704      3.0787730467268148
   277   1      33.814848802061299       87.09742607050768      1.2206860538177833
   278   1      36.415454130116487      87.097747818903713      2.1296150036950134
   279   1      31.214215730834898      87.097165032231814      3.0692719130597412
   280   1       29.91450303883984      89.349619475499935      1.2134982490721149
   281   1      32.515136837215778      89.349902367994261      2.1231433161611175
   282   1      35.115772171884231      89.350234648890094      3.0315875428731225
   283   1      33.815978123524097      91.602693227171699      1.1766067578886772
   284   1      36.416604069266199      91.603102839380483      2.0833884470511164
   285   1      31.215350096881366      91.602343408970228      3.0272083810422856
   286   1      29.915506934512969      93.854752101171641      1.1739654351074955
   287   1      32.516113748997547      93.855119415365706      2.0819195402828421
   288   1      35.116726434397037      93.855540626803631      2.9885959368702539
   289   1      33.816785959135295      96.107948664342643      1.1365415485585344
   290   1      36.417376528684215      96.108443731372731      2.0418513508673453
   291   1       31.21619934842094      96.107513308987251      2.9885990728531873
   292   1        29.9162120063611      98.359893998408765      1.1377443805241136
   293   1      32.516801562495928      98.360325689227224       2.044498848883253
   294   1       35.11736583607906      98.360828499012811      2.9499879727377682
   295   1      33.817315907963319      100.61318560376034      1.1005523121968761
   296   1      36.417859492356854       100.6137512043165      2.0049660050911724
   297   1      31.216745514087336      100.61269226000806      2.9535676428429829
   298   1      29.916648260031014      102.86502263619531      1.1048752142322424
   299   1      32.517194213976431      102.86554003921883      2.0108539908250842
   300   1       35.11775019502079      102.86608377172534      2.9156417550304718
   301   1      33.817567910636555      105.11842919024028      1.0684627369329203
   302   1      36.418119525436801      105.11899899641574      1.9724383751340115
   303   1      31.217027824446919      105.11786602401253      2.9220292635973051
   304   1      29.916495466069012      107.37049818544168      1.0752009524524315
   305   1      32.517337607694088      107.37076361601488      1.9807790536939298
   306   1       35.11788891216321      107.37133491954015      2.8852431766163882
   307   1      33.817590842786608       109.6237093629554      1.0399539860529439
   308   1      36.418350693891753       109.6240744182895      1.9438454225836885
   309   1      31.216793011135703      109.62339490245779      2.8937257210498526
   310   1      29.916249234894273      111.87601919989959      1.0485141548850092
   311   1       32.51704261732521      111.87633361752501      1.9539312275310599
   312   1      35.117801437995972      111.87669485354289      2.8583720585486825
   313   1      33.817256507612058      114.12930644910787      1.0146221591294777
   314   1      36.417982945777638      114.12971004286706      1.9186356402701303
   315   1      31.216497479524566      114.12894991896593       2.868396060124073
   316   1      29.915955526334592      116.38155880022731      1.0245544141601364
   317   1      32.516715688313283      116.38190998682165      1.9300056347595096
   318   1      35.117446399313884      116.38230432071735      2.8345922095988234
   319   1      33.816914024835498      118.63489121686085     0.99212727075266238
   320   1      36.417622899965437      118.63531761968268        1.89642084199274
   321   1      41.612263383219435      19.527323528037638    -0.91422186869620337
   322   1      44.213515233684419      19.527833662042713    0.021994972758520359
   323   1      37.710249907951706       21.77883235056462    -0.94656371350228719
   324   1      40.311491989590792      21.779316429658522   -0.011064966544756194
   325   1      42.912747403425158      21.779827948926439     0.92517235780234408
   326   1      41.611962857130806      24.031798147060631    -0.93114580322168816
   327   1      44.213231814580382      24.032333050298519   0.0058544509301735603
   328   1      39.010708600660799      24.031293415230444     0.89139632464777985
   329   1      37.709918072150302      26.283261960794338    -0.96556171772202382
   330   1      40.311165363488712       26.28375120702912   -0.029488699047545253
   331   1      42.912432874112106      26.284278405828406     0.90745978757176549
   332   1      41.611619922091862      28.536205262949416    -0.95050062183568051
   333   1      44.212901913302687      28.536756988521059   -0.012723913183477431
   334   1      39.010360562397267      28.535695731759699     0.87142200369046163
   335   1      37.709556182466173      30.787641757926245    -0.98712351537248477
   336   1      40.310799558329819      30.788123587482001   -0.050543036559362764
   337   1      42.911889973941584      30.788425963824992     0.88704301568130983
   338   1      41.610944069714378      33.040222848573393    -0.97280358665133404
   339   1      44.212086880581502      33.040564158320436   -0.034334686106810043
   340   1      39.009809504138289      33.039857161706969     0.84860035109618537
   341   1      37.708951682980576      35.291745213652753     -1.0117111280074016
   342   1      40.309992193604536      35.292007840455092   -0.074776929256015243
   343   1      42.911086561177953      35.292299211579746     0.86337622185588037
   344   1      41.610096322737888      37.544068621677333    -0.99857927849599171
   345   1       44.21118197298032      37.544322430375523   -0.059512744241048098
   346   1      39.009081943778064      37.543857175298605     0.82245531937687277
   347   1      37.708194595008749      39.795767589650595     -1.0397687575897367
   348   1      40.309135334923404       39.79589978438392    -0.10266890982170365
   349   1      42.910148855741383      39.796082686586701     0.83586301837081967
   350   1      41.609154330034265      42.047912396938486     -1.0284399628530541
   351   1      44.210176108904754      42.048082452185362    -0.08900762372043447
   352   1      39.008220375104969      42.047801127633534     0.79246827779660844
   353   1      37.707382526816133      44.299782922562152     -1.0717844918408113
   354   1      40.308226088981385      44.299825871767126    -0.13483654550849869
   355   1      42.909152232314874      44.299917967598304     0.80375753809062878
   356   1      41.608213300187742      46.551850951849808     -1.0630951080489461
   357   1      44.209107160123622      46.551903980949689    -0.12369508771637695
   358   1      39.007396085696655      46.551836285277204     0.75808533311211035
   359   1      37.706694173130089      48.803953522455849     -1.1082353836000343