./data_files/relaxed_easy_core.lammps-data (written by ASE) 

1972 	 atoms 
1  atom types
0.0      140.45181934219929  xlo xhi
0.0      144.15981458736252  ylo yhi
0.0      2.7587342746349166  zlo zhi


Atoms 

     1   1      13.001099999999999      55.561599999999999                 2.41479
     2   1      13.002000000000001      60.066600000000001      2.3827199999999999
     3   1                  11.702      62.319099999999999     0.52571800000000002
     4   1                  13.003      64.571600000000004                 2.34972
     5   1      11.703099999999999      66.824100000000001     0.49307899999999999
     6   1                 10.4033      69.076599999999999      1.3958200000000001
     7   1      13.004200000000001      69.076599999999999      2.3161299999999998
     8   1                 11.7043      71.329099999999997                0.460065
     9   1      10.404400000000001      73.581599999999995      1.3634599999999999
    10   1                 13.0054      73.581599999999995                 2.28233
    11   1      11.705500000000001      75.834100000000007     0.42704599999999998
    12   1      13.006500000000001      78.086600000000004      2.2487300000000001
    13   1                 11.7066      80.338999999999999     0.39439400000000002
    14   1                 13.0076      82.591499999999996                  2.2157
    15   1                 11.7075      84.843999999999994                0.362458
    16   1                 13.0085      87.096500000000006      2.1836099999999998
    17   1      20.802099999999999                 42.0471      2.5290599999999999
    18   1      19.501799999999999      44.299399999999999     0.67043799999999998
    19   1      18.201499999999999                 46.5518      1.5706199999999999
    20   1      20.802399999999999                 46.5518      2.4987300000000001
    21   1      16.901299999999999      48.804200000000002      2.4709500000000002
    22   1      19.502099999999999      48.804200000000002     0.63948199999999999
    23   1      18.202000000000002      51.056699999999999                 1.53918
    24   1      20.802800000000001      51.056699999999999      2.4661900000000001
    25   1                 15.6012      51.056600000000003     0.61277000000000004
    26   1                 14.3011      53.309100000000001      1.5136099999999999
    27   1      16.901900000000001      53.309100000000001      2.4391600000000002
    28   1      19.502700000000001      53.309100000000001     0.60650899999999996
    29   1                 18.2027      55.561599999999999      1.5059199999999999
    30   1                 20.8035      55.561599999999999                  2.4316
    31   1      15.601900000000001      55.561599999999999     0.58075600000000005
    32   1                 14.3019      57.814100000000003                  1.4815
    33   1      16.902699999999999      57.814100000000003      2.4057599999999999
    34   1      19.503599999999999      57.814100000000003     0.57171799999999995
    35   1      18.203700000000001      60.066600000000001                 1.47109
    36   1      20.804500000000001      60.066600000000001      2.3952200000000001
    37   1                 15.6028      60.066600000000001     0.54736099999999999
    38   1      14.302899999999999      62.319099999999999                 1.44824
    39   1                 16.9038      62.319099999999999      2.3710399999999998
    40   1                 19.5046      62.319099999999999     0.53542400000000001
    41   1      18.204799999999999      64.571600000000004      1.4350400000000001
    42   1      20.805199999999999                 64.5715      2.3578600000000001
    43   1      15.603899999999999      64.571600000000004     0.51290100000000005
    44   1                 14.3041      66.824100000000001      1.4141600000000001
    45   1      16.905000000000001      66.824100000000001      2.3353899999999999
    46   1                 19.5059      66.824100000000001     0.49804900000000002
    47   1                  18.206      69.076599999999999                 1.39822
    48   1                 20.8065      69.076499999999996      2.3192200000000001
    49   1                 15.6051      69.076599999999999                0.477767
    50   1      14.305300000000001      71.329099999999997      1.3796600000000001
    51   1      16.906199999999998      71.329099999999997      2.2992499999999998
    52   1      19.507200000000001      71.329099999999997     0.46010600000000001
    53   1                 18.2074      73.581599999999995                 1.36113
    54   1                 20.8079      73.581599999999995                 2.28017
    55   1      15.606400000000001      73.581599999999995     0.44239899999999999
    56   1                 14.3065      75.834100000000007                 1.34514
    57   1      16.907499999999999      75.834100000000007      2.2631000000000001
    58   1      19.508500000000002      75.834100000000007                0.422157
    59   1      18.208600000000001      78.086600000000004                  1.3243
    60   1                 20.8093      78.086600000000004                 2.24139
    61   1                 15.6076      78.086600000000004     0.40725499999999998
    62   1      14.307600000000001      80.338999999999999                 1.31105
    63   1                 16.9087      80.338999999999999                 2.22743
    64   1      19.509799999999998      80.338999999999999     0.38476300000000002
    65   1      18.209800000000001      82.591499999999996                 1.28823
    66   1                 20.8109      82.591499999999996      2.2032799999999999
    67   1      15.608700000000001      82.591499999999996                0.372776
    68   1                 14.3086      84.843999999999994                 1.27776
    69   1      16.909700000000001      84.843999999999994      2.1926899999999998
    70   1                 19.5108      84.843999999999994                0.348439
    71   1      18.210699999999999      87.096599999999995      1.2533700000000001
    72   1      20.811800000000002      87.096599999999995      2.1668599999999998
    73   1                 15.6096      87.096500000000006     0.33935300000000002
    74   1                 14.3095      89.349100000000007                 1.24563
    75   1      16.910499999999999      89.349100000000007      2.1592600000000002
    76   1      19.511600000000001      89.349100000000007     0.31361099999999997
    77   1      18.211400000000001      91.601600000000005                 1.22007
    78   1                 20.8125      91.601600000000005      2.1322299999999998
    79   1      15.610300000000001      91.601600000000005     0.30730600000000002
    80   1      16.911200000000001      93.854200000000006      2.1274199999999999
    81   1                 19.5122      93.854200000000006     0.28059600000000001
    82   1                 18.2119      96.106700000000004                 1.18859
    83   1      20.812999999999999      96.106800000000007                 2.09965
    84   1      15.610900000000001      96.106700000000004                0.276868
    85   1                 16.9116      98.359300000000005      2.0973899999999999
    86   1      19.512599999999999      98.359300000000005     0.24959700000000001
    87   1      18.212199999999999      100.61199999999999                 1.15907
    88   1      20.813199999999998      100.61199999999999      2.0692699999999999
    89   1      19.512799999999999      102.86499999999999     0.22071399999999999
    90   1      20.813300000000002                 105.117      2.0411299999999999
    91   1                 27.3048      30.786000000000001     0.78576699999999999
    92   1      26.004200000000001      33.038200000000003      1.6866099999999999
    93   1                 28.6052      33.038400000000003                 2.61897
    94   1      24.703600000000002      35.290300000000002                 2.58717
    95   1      27.304600000000001      35.290500000000002     0.76022299999999998
    96   1      26.004000000000001      37.542700000000004      1.6599200000000001
    97   1                  28.605      37.542900000000003      2.5919599999999998
    98   1      23.402999999999999      37.542499999999997     0.72877000000000003
    99   1      22.102499999999999      39.794800000000002                 1.62896
   100   1      24.703499999999998      39.794899999999998      2.5594199999999998
   101   1      27.304500000000001      39.795099999999998     0.73200600000000005
   102   1      26.004000000000001                 42.0473                 1.63059
   103   1      28.604900000000001      42.047400000000003      2.5620599999999998
   104   1      23.402999999999999      42.047199999999997     0.70004599999999995
   105   1      22.102699999999999      44.299500000000002                 1.59937
   106   1      24.703600000000002      44.299599999999998                 2.52908
   107   1      27.304500000000001      44.299700000000001     0.70094599999999996
   108   1      26.004100000000001                  46.552      1.5985100000000001
   109   1      28.604500000000002                 46.5518      2.5300500000000001
   110   1      23.403199999999998      46.551900000000003     0.66883700000000001
   111   1      22.103000000000002      48.804299999999998                 1.56742
   112   1      24.703800000000001      48.804299999999998      2.4961199999999999
   113   1      27.304099999999998      48.804099999999998     0.66786800000000002
   114   1      26.003900000000002                 51.0565      1.5645100000000001
   115   1      28.604199999999999                 51.0563      2.4948700000000001
   116   1      23.403600000000001      51.056699999999999                0.635162
   117   1                 22.1035      53.309100000000001      1.5331999999999999
   118   1      24.703800000000001      53.308900000000001      2.4613499999999999
   119   1      27.304099999999998      53.308700000000002                0.631741
   120   1      26.004100000000001      55.561199999999999      1.5276000000000001
   121   1      28.604399999999998      55.560899999999997                 2.45642
   122   1                 23.4038      55.561399999999999     0.59970400000000001
   123   1      22.104399999999998      57.814100000000003                 1.49691
   124   1                 24.7044      57.813800000000001      2.4238300000000002
   125   1      27.304600000000001      57.813499999999998     0.59261399999999997
   126   1      26.004899999999999      60.066200000000002                  1.4881
   127   1                  28.605      60.065899999999999      2.4149500000000002
   128   1      23.404699999999998      60.066400000000002     0.56194599999999995
   129   1      22.104900000000001      62.319000000000003                 1.45956
   130   1      24.705200000000001      62.318800000000003      2.3843200000000002
   131   1      27.305399999999999      62.318600000000004     0.55094900000000002
   132   1      26.005800000000001      64.571200000000005      1.4465399999999999
   133   1      28.606000000000002      64.570999999999998      2.3709899999999999
   134   1                 23.4056      64.571399999999997     0.52259800000000001
   135   1      22.106100000000001      66.823999999999998      1.4204399999999999
   136   1      24.706299999999999      66.823800000000006      2.3430800000000001
   137   1                 27.3066      66.823700000000002                0.507301
   138   1      26.007200000000001      69.076300000000003                 1.40347
   139   1      28.607500000000002                 69.0762      2.3252600000000001
   140   1                 23.4069      69.076400000000007                0.481877
   141   1      22.107500000000002      71.328999999999994                 1.38046
   142   1      24.707799999999999      71.328900000000004      2.3008099999999998
   143   1      27.308199999999999      71.328900000000004     0.46245999999999998
   144   1      26.008800000000001      73.581500000000005                 1.35975
   145   1      28.609200000000001      73.581400000000002      2.2787600000000001
   146   1                 23.4084      73.581500000000005     0.44062600000000002
   147   1      22.108899999999998      75.834100000000007      1.3403799999999999
   148   1      24.709399999999999      75.834100000000007      2.2583899999999999
   149   1      27.309899999999999      75.834000000000003     0.41741400000000001
   150   1                 26.0105      78.086600000000004                  1.3163
   151   1      28.611000000000001      78.086600000000004                 2.23258
   152   1                 23.4099      78.086600000000004     0.39962500000000001
   153   1      22.110399999999998      80.339100000000002                 1.30087
   154   1      24.710999999999999      80.339100000000002      2.2166299999999999
   155   1      27.311499999999999      80.339200000000005     0.37316199999999999
   156   1                  26.012      82.591700000000003      1.2740199999999999
   157   1                 28.6126      82.591800000000006      2.1877900000000001
   158   1                 23.4114                 82.5916     0.35958099999999998
   159   1      22.111599999999999      84.844099999999997      1.2626200000000001
   160   1      24.712299999999999      84.844200000000001                 2.17632
   161   1      27.312999999999999      84.844300000000004     0.33061400000000002
   162   1      26.013300000000001      87.096800000000002                 1.23367
   163   1      28.614000000000001      87.096900000000005                 2.14527
   164   1      23.412500000000001      87.096699999999998     0.32123499999999999
   165   1                 22.1128      89.349100000000007      1.2260899999999999
   166   1                 24.7135      89.349199999999996      2.1380699999999999
   167   1                 27.3142      89.349400000000003     0.29048000000000002
   168   1      26.014299999999999      91.601900000000001      1.1957800000000001
   169   1      28.614999999999998      91.602000000000004      2.1056400000000002
   170   1      23.413599999999999      91.601699999999994     0.28496300000000002
   171   1      22.113299999999999      93.854200000000006      1.1918299999999999
   172   1      24.714400000000001      93.854299999999995      2.1023000000000001
   173   1      27.315100000000001      93.854500000000002     0.25323000000000001
   174   1                 26.0151      96.106899999999996      1.1607400000000001
   175   1                 28.6158      96.107100000000003                 2.06928
   176   1      23.414000000000001      96.106800000000007     0.25123800000000002
   177   1      22.113700000000001      98.359399999999994      1.1598299999999999
   178   1      24.714700000000001      98.359499999999997                 2.06928
   179   1                 27.3157                 98.3596     0.21911700000000001
   180   1                 26.0152      100.61199999999999                 1.12859
   181   1      28.616199999999999      100.61199999999999      2.0362900000000002
   182   1      23.414200000000001      100.61199999999999     0.21997900000000001
   183   1      22.113800000000001      102.86499999999999      1.1302000000000001
   184   1                 24.7148      102.86499999999999      2.0388999999999999
   185   1                 27.3157      102.86499999999999                0.188001
   186   1                 26.0152      105.11799999999999                 1.09921
   187   1      28.616099999999999      105.11799999999999      2.0063300000000002
   188   1      23.414300000000001                 105.117     0.19120799999999999
   189   1      22.113800000000001                  107.37      1.1029100000000001
   190   1      24.714700000000001                  107.37      2.0110999999999999
   191   1                 27.3156                  107.37     0.15973300000000001
   192   1      26.015000000000001                 109.623      1.0724800000000001
   193   1                 28.6159                 109.623      1.9792700000000001
   194   1      27.315300000000001                 111.876     0.13414400000000001
   195   1      28.615600000000001                 114.129                 1.95489
   196   1      36.409399999999998                 24.0306      2.7083699999999999
   197   1      32.507399999999997                 26.2822      2.6753800000000001
   198   1      35.108600000000003      26.282599999999999     0.85112500000000002
   199   1                 33.8078      28.534600000000001      1.7520199999999999
   200   1      36.408999999999999                  28.535      2.6870799999999999
   201   1      31.206600000000002      28.534300000000002     0.81786999999999999
   202   1      29.905899999999999      30.786300000000001      1.7186300000000001
   203   1      32.507100000000001                 30.7866      2.6523699999999999
   204   1      35.108199999999997      30.786999999999999     0.82831500000000002
   205   1      33.807499999999997      33.039000000000001                  1.7277
   206   1                 36.4086      33.039400000000001      2.6629399999999999
   207   1      31.206299999999999      33.038699999999999     0.79348799999999997
   208   1                 29.9057      35.290799999999997      1.6929099999999999
   209   1      32.506700000000002      35.290999999999997                 2.62656
   210   1      35.107900000000001      35.291400000000003     0.80252800000000002
   211   1      33.807200000000002      37.543399999999998      1.7002999999999999
   212   1      36.407899999999998      37.543300000000002      2.6366399999999999
   213   1      31.206099999999999      37.543100000000003                0.766235
   214   1                 29.9055      39.795299999999997                 1.66428
   215   1                 32.5062      39.795200000000001      2.5982500000000002
   216   1      35.106999999999999      39.795299999999997     0.77478400000000003
   217   1      33.806199999999997      42.047199999999997                 1.67119
   218   1                 36.4069      42.047199999999997                 2.60704
   219   1      31.205500000000001                 42.0473                0.736676
   220   1      29.904900000000001      44.299500000000002      1.6334500000000001
   221   1      32.505499999999998      44.299300000000002      2.5670999999999999
   222   1      35.106099999999998      44.299199999999999     0.74329699999999999
   223   1      33.805399999999999      46.551400000000001                 1.63785
   224   1      36.405999999999999      46.551200000000001      2.5731299999999999
   225   1      31.204899999999999      46.551600000000001     0.70396499999999995
   226   1      29.904499999999999      48.803899999999999                 1.59941
   227   1      32.504899999999999      48.803600000000003      2.5321400000000001
   228   1      35.105400000000003      48.803400000000003     0.70746299999999995
   229   1      33.804900000000004      51.055700000000002                 1.60032
   230   1      36.405299999999997      51.055500000000002      2.5344899999999999
   231   1      31.204599999999999      51.055999999999997     0.66760299999999995
   232   1      29.904399999999999      53.308399999999999                 1.56189
   233   1                 32.5047      53.308199999999999      2.4931800000000002
   234   1      35.104999999999997      53.307899999999997     0.66707099999999997
   235   1                 33.8048      55.560400000000001                  1.5585
   236   1      36.405000000000001      55.560099999999998      2.4908800000000002
   237   1      31.204599999999999      55.560699999999997     0.62750300000000003
   238   1      29.904699999999998      57.813299999999998                 1.52094
   239   1      32.504899999999999      57.813000000000002      2.4502799999999998
   240   1      35.104999999999997                 57.8127     0.62207100000000004
   241   1      33.805199999999999      60.065300000000001                 1.51254
   242   1      36.405299999999997      60.064999999999998                 2.44238
   243   1      31.205100000000002      60.065600000000003     0.58387999999999995
   244   1                 29.9055      62.318300000000001      1.4769699999999999
   245   1      32.505600000000001      62.317999999999998      2.4037799999999998
   246   1      35.105699999999999      62.317700000000002                0.572797
   247   1      33.806199999999997      64.570499999999996      1.4630000000000001
   248   1      36.406300000000002                 64.5702      2.3895599999999999
   249   1      31.206199999999999      64.570800000000006                0.537277
   250   1                 29.9068      66.823499999999996      1.4306399999999999
   251   1      32.506900000000002      66.823300000000003      2.3544499999999999
   252   1      35.106999999999999      66.823099999999997     0.52007400000000004
   253   1      33.807899999999997      69.075900000000004                 1.41089
   254   1      36.408000000000001      69.075699999999998      2.3335900000000001
   255   1      31.207699999999999      69.076099999999997     0.48856100000000002
   256   1                 29.9085      71.328800000000001                  1.3829
   257   1      32.508699999999997      71.328699999999998      2.3033999999999999
   258   1      35.108899999999998      71.328500000000005     0.46524399999999999
   259   1      33.809899999999999      73.581299999999999                 1.35764
   260   1                 36.4101      73.581299999999999      2.2761800000000001
   261   1      31.209599999999998      73.581400000000002     0.43890699999999999
   262   1      29.910299999999999      75.834000000000003      1.3348899999999999
   263   1                 32.5107      75.834000000000003                 2.25203
   264   1                 35.1111      75.834000000000003                0.410028
   265   1      33.811999999999998      78.086699999999993      1.3048599999999999
   266   1      36.412399999999998      78.086799999999997      2.2193700000000001
   267   1      31.211500000000001      78.086699999999993     0.38964399999999999
   268   1      29.912099999999999      80.339299999999994      1.2878400000000001
   269   1      32.512700000000002      80.339299999999994      2.2018300000000002
   270   1      35.113199999999999      80.339500000000001                0.356236
   271   1      33.813800000000001      82.592100000000002      1.2541199999999999
   272   1      36.414499999999997      82.592299999999994      2.1650700000000001
   273   1      31.213200000000001      82.591899999999995     0.34204800000000002
   274   1      29.913699999999999      84.844399999999993      1.2428300000000001
   275   1      32.514299999999999                 84.8446      2.1540699999999999
   276   1      35.115000000000002      84.844800000000006     0.30542799999999998
   277   1      33.815300000000001      87.097399999999993      1.2066300000000001
   278   1      36.415999999999997      87.097700000000003      2.1147399999999998
   279   1      31.214700000000001      87.097099999999998     0.29715799999999998
   280   1      29.914899999999999      89.349599999999995                 1.20065
   281   1      32.515599999999999      89.349900000000005      2.1097000000000001
   282   1      35.116300000000003      89.350200000000001                0.258683
   283   1      33.816400000000002      91.602699999999999      1.1631800000000001
   284   1      36.417099999999998      91.603099999999998                 2.06921
   285   1      31.215699999999998                 91.6023     0.25567499999999999
   286   1      29.915800000000001      93.854699999999994                 1.16184
   287   1      32.516500000000001      93.855099999999993      2.0692400000000002
   288   1      35.117100000000001      93.855500000000006     0.21654399999999999
   289   1      33.817100000000003      96.107900000000001                 1.12408
   290   1      36.417700000000004      96.108500000000006      2.0287600000000001
   291   1                 31.2165      96.107500000000002                 0.21795
   292   1      29.916399999999999      98.359800000000007                  1.1266
   293   1      32.517000000000003      98.360299999999995                 2.03288
   294   1      35.117600000000003      98.360900000000001     0.17909900000000001
   295   1      33.817399999999999                 100.613      1.0892999999999999
   296   1      36.417999999999999                 100.614                 1.99322
   297   1      31.216799999999999                 100.613     0.18404400000000001
   298   1      29.916599999999999      102.86499999999999      1.0948800000000001
   299   1      32.517200000000003                 102.866                 2.00048
   300   1      35.117699999999999                 102.866     0.14611299999999999
   301   1      33.817500000000003                 105.119                 1.05857
   302   1      36.417999999999999                 105.119      1.9621900000000001
   303   1      31.216999999999999      105.11799999999999     0.15374499999999999
   304   1      29.916399999999999                 107.371      1.0662100000000001
   305   1      32.517200000000003                 107.371      1.9717100000000001
   306   1      35.117699999999999                 107.371                0.117191
   307   1      33.817500000000003                 109.624                 1.03138
   308   1      36.418199999999999                 109.624                 1.93529
   309   1      31.216699999999999                 109.624                 0.12644
   310   1                 29.9162                 111.876                 1.04043
   311   1                 32.5169                 111.877                 1.94584
   312   1      35.117699999999999                 111.877    0.091579199999999999
   313   1      33.817100000000003                  114.13                 1.00701
   314   1      36.417900000000003                  114.13                  1.9111
   315   1                 31.2164                 114.129     0.10201300000000001
   316   1      29.915900000000001      116.38200000000001      1.0173000000000001
   317   1      32.516599999999997      116.38200000000001      1.9228000000000001
   318   1                 35.1173      116.38200000000001    0.068726400000000007
   319   1      33.816800000000001      118.63500000000001     0.98536100000000004
   320   1      36.417499999999997                 118.636      1.8897699999999999
   321   1      41.612200000000001      19.527200000000001      1.8392599999999999
   322   1                 44.2134      19.527699999999999    0.016998200000000002
   323   1      37.710099999999997      21.778700000000001                 1.80626
   324   1      40.311399999999999                 21.7791      2.7419500000000001
   325   1      42.912700000000001      21.779699999999998     0.91968799999999995
   326   1      41.611899999999999      24.031600000000001                 1.82159
   327   1      44.213099999999997                 24.0322  0.00011558200000000001
   328   1      39.010599999999997      24.031099999999999     0.88519499999999995
   329   1      37.709800000000001      26.283100000000001                 1.78647
   330   1      40.311100000000003                 26.2836      2.7227199999999998
   331   1      42.912300000000002      26.284099999999999     0.90116099999999999
   332   1      41.611499999999999      28.536000000000001                 1.80135
   333   1      44.212800000000001                 28.5366      2.7393700000000001
   334   1      39.010199999999998      28.535499999999999     0.86435399999999996
   335   1      37.709400000000002      30.787400000000002      1.7639899999999999
   336   1      40.310699999999997                 30.7879      2.7007099999999999
   337   1      42.911700000000003                 30.7881     0.88053800000000004
   338   1      41.610700000000001      33.039900000000003                 1.77929
   339   1      44.211799999999997      33.040199999999999                 2.71875
   340   1      39.009599999999999                 33.0396     0.84110300000000005
   341   1                 37.7087      35.291400000000003                 1.73926
   342   1      40.309699999999999      35.291600000000003      2.6771400000000001
   343   1      42.910800000000002      35.291899999999998     0.85755999999999999
   344   1      41.609699999999997      37.543599999999998      1.7540800000000001
   345   1      44.210799999999999      37.543799999999997      2.6942499999999998
   346   1      39.008800000000001      37.543399999999998     0.81534099999999998
   347   1      37.707799999999999      39.795299999999997      1.7115100000000001
   348   1      40.308700000000002      39.795400000000001      2.6496400000000002
   349   1      42.909700000000001      39.795499999999997     0.83055299999999999
   350   1      41.608600000000003                 42.0473      1.7245600000000001
   351   1      44.209600000000002      42.047499999999999      2.6651899999999999
   352   1                 39.0077      42.047199999999997     0.78564299999999998
   353   1      37.706800000000001      44.299199999999999                 1.67967
   354   1      40.307600000000001      44.299199999999999      2.6176599999999999
   355   1      42.908499999999997      44.299199999999999     0.79868499999999998
   356   1      41.607399999999998      46.551099999999998      1.6899299999999999
   357   1      44.208300000000001      46.551099999999998      2.6305999999999998
   358   1      39.006700000000002      46.551099999999998     0.75127200000000005