LAMMPS data file via write_data, version 2 Aug 2023, timestep = 51, units = metal

16 atoms
2 atom types

0 6.26 xlo xhi
0 6.26 ylo yhi
0 6.26 zlo zhi

Masses

1 45
2 45

Atoms # atomic

1 1 0.07564438397584058 0.026529304667159876 0.27331508692896167 0 0 0
2 1 1.6832631166500338 1.8333694188526823 1.3760034616553087 0 0 0
3 1 3.1842733313197797 6.081318723585796 0.22265308051320135 -1 -2 0
4 2 4.511635399675733 1.6154702385598863 1.541364246430035 -1 0 0
5 2 6.24289675673019 3.220379670958041 6.143047603641939 -2 -1 -2
6 2 1.6033054030397982 4.491467255139873 1.8275620726161457 0 -1 0
7 2 3.1982411403008273 3.438717594377281 5.980627213032748 -1 -1 -2
8 2 4.764525018691054 4.722000839867988 1.829576731507735 -1 -1 0
9 2 0.2943096308182261 0.2516498796238222 3.081485753561884 0 0 0
10 1 1.6438903151314852 1.5081616358582095 4.93055827601977 0 0 -1
11 1 3.01252667863371 0.15057606902294704 2.991825980320325 0 0 0
12 2 4.539978447309547 1.3234580161197762 4.761113407258693 -1 0 -1
13 1 6.148082351211775 2.900975128717732 3.156953785173795 -2 0 -1
14 1 1.4171543108321039 4.630347079947782 4.559952954700427 0 -1 -1
15 1 3.3312936766794694 3.1830915882463136 3.282150111838523 -1 -1 -1
16 1 4.929780039000426 4.943287556454704 4.622610234800515 -1 -1 -1

Velocities

1 0 0 0
2 0 0 0
3 0 0 0
4 0 0 0
5 0 0 0
6 0 0 0
7 0 0 0
8 0 0 0
9 0 0 0
10 0 0 0
11 0 0 0
12 0 0 0
13 0 0 0
14 0 0 0
15 0 0 0
16 0 0 0
