LAMMPS data file via write_data, version 2 Aug 2023, timestep = 292, units = metal

1926 atoms
2 atom types

0 140.45393781036688 xlo xhi
0 144.16198898410357 ylo yhi
0 2.7587758852795563 zlo zhi

Masses

1 183.84
2 9.012181999999999

Atoms # atomic

91 1 27.29760716 30.78985729 0.79591301 0 0 0
92 1 25.99661756 33.04140846 1.6967215952795562 0 0 -2
93 1 28.59795055 33.04208771 2.629545735279556 0 0 -2
94 1 24.69573907 35.29305446 2.597212015279556 0 0 -2
95 1 27.29697525 35.29362915 0.77070535 0 0 0
196 1 36.40427988 24.03778404 2.719244075279556 0 0 -2
197 1 32.50138446 26.28794262 2.6859471752795563 0 0 -2
198 1 35.10301044 26.28900862 0.86206323 0 0 0
199 1 33.80175216 28.5402488 1.7630366052795563 0 0 -2
200 1 36.40339686 28.54134798 2.6985425552795563 0 0 -2
201 1 31.20018119 28.53926371 0.82844653 0 0 0
202 1 29.8990281 30.7906386 1.7292208552795563 0 0 -2
203 1 32.5005279 30.79152852 2.6634275852795564 0 0 -2
204 1 35.10210943 30.79253653 0.83981277 0 0 0
205 1 33.80086436 33.04377324 1.7392336552795562 0 0 -2
206 1 36.4024552 33.04480366 2.6750056052795563 0 0 -2
207 1 31.19936419 33.04287182 0.80451043 0 0 0
208 1 29.89829023 35.2943013 1.7038976352795563 0 0 -2
209 1 32.49969261 35.29508526 2.6380890052795563 0 0 -2
210 1 35.10119005 35.29599594 0.81458214 0 0 0
321 1 41.60850913 19.53655775 1.8501323652795563 0 0 -2
322 1 44.21025589 19.53786754 0.02810167 0 0 0
323 1 37.70554183 21.78655256 1.8169987352795562 0 0 -2
324 1 40.30727043 21.78780641 2.7530237452795565 0 0 -2
325 1 42.90903045 21.789127 0.93103792 0 0 0
326 1 41.60775797 24.04031697 1.8331642452795562 0 0 -2
327 1 44.20955384 24.04169988 0.01199083 0 0 0
328 1 39.00599669 24.03900741 0.8964002 0 0 0
329 1 37.7046999 26.29018024 1.7978244352795563 0 0 -2
330 1 40.30644734 26.29145512 2.7344819652795564 0 0 -2
331 1 42.90824434 26.29282553 0.91327864 0 0 0
332 1 41.60689317 28.54389464 1.8136779952795563 0 0 -2
333 1 44.20872938 28.54533179 2.7521388152795563 0 0 -2
334 1 39.00511252 28.54256392 0.8762282 0 0 0
335 1 37.70377321 30.79367012 1.7759810752795562 0 0 -2
336 1 40.30551667 30.79493331 2.713204495279556 0 0 -2
337 1 42.907143826577204 30.795763324482664 0.8918469189305516 0 0 0
338 1 41.605538791952974 33.04642894822936 1.789692342256195 0 0 -2
339 1 44.207328880254224 33.04761327276456 2.7282199472634896 0 0 -2
340 1 39.00403482 33.04590945 0.85245941 0 0 0
341 1 37.70218684103485 35.29624097747318 1.7498725450434236 0 0 -2
342 1 40.30371811676412 35.297074141088395 2.68664349704187 0 0 -2
343 1 42.90536337126188 35.298047349138535 0.8659758259705319 0 0 0
462 1 52.01591212 15.03748236 0.09439934 0 0 0
463 1 48.11315387 17.28780897 0.06161483 0 0 0
464 1 50.71486869 17.28906946 0.99944871 0 0 0
465 1 49.41376651 19.5405401 1.9036238452795562 0 0 -2
466 1 52.01550927 19.54184708 0.08356843 0 0 0
467 1 46.81201192 19.53920344 0.96553171 0 0 0
468 1 45.51081144 21.79049735 1.8685889752795561 0 0 -2
469 1 48.11260169 21.79189432 0.04811022 0 0 0
470 1 50.71438899 21.79328838 0.9871263 0 0 0
471 1 49.41319989 24.04460015 1.8896789052795562 0 0 -2
472 1 52.01502259 24.04605597 0.07093816 0 0 0
473 1 46.81137231 24.04313659 0.95042696 0 0 0
474 1 45.51007961 26.29427692 1.8517740752795562 0 0 -2
475 1 48.11193928 26.29578665 0.03241086 0 0 0
476 1 50.71399806548324 26.297300147055644 0.9720940338127856 0 0 0
477 1 49.41273163975961 28.54820597050868 1.8720640719359127 0 0 -2
478 1 52.01481890382509 28.550075640827316 0.054398784376947486 0 0 0
479 1 46.810654056292066 28.546531781420235 0.9320251602518698 0 0 0
480 1 45.50912711992572 30.79718071551539 1.8307005542771575 0 0 -2
481 1 48.11117149697502 30.798825463579 0.011937491469551927 0 0 0
482 1 50.713298987592 30.800801440406726 0.9532093344673426 0 0 0
483 1 49.4114566540902 33.051216780178294 1.8506328790762139 0 0 -2
484 1 52.013675609265896 33.053537251854955 0.03453717853279706 0 0 0
485 1 46.80932530405833 33.049233386911226 0.9093421418343555 0 0 0
486 1 45.50722143716423 35.299485629675914 1.8055606713687806 0 0 -2
487 1 48.10930124818438 35.301385314338944 2.746678519378045 0 0 -2
488 1 50.71154484487836 35.30370877396278 0.9305912817607551 0 0 0
611 1 57.21919078 15.03958238 1.9708255052795565 0 0 -2
612 1 59.82078985 15.04044987 0.15083638 0 0 0
613 1 54.61756427 15.03858331 1.03240231 0 0 0
614 1 53.31656567 17.29027715 1.9378275252795563 0 0 -2
615 1 55.91823824 17.29139936 0.1179274 0 0 0
616 1 58.51988222 17.29240224 1.0572426 0 0 0
617 1 57.21892492 19.54423049 1.9627016652795564 0 0 -2
618 1 59.82058702 19.54523102 0.14421373 0 0 0
619 1 54.61723105 19.54308972 1.02287195 0 0 0
620 1 53.31616162 21.79464411 1.9268209852795564 0 0 -2
621 1 55.91790956 21.79592122 0.10836427 0 0 0
622 1 58.51962565 21.79707649 1.04924011 0 0 0
623 1 57.21888743566737 24.0491951055034 1.9526780788159095 0 0 -2
624 1 59.820721060143846 24.050579140326654 0.13579712221387877 0 0 0
625 1 54.61682717 24.04746249 1.01170788 0 0 0
626 1 53.31602501221178 26.29900302039659 1.9130151981269499 0 0 -2
627 1 55.917979128357 26.300780621395184 0.0959826366900458 0 0 0
628 1 58.519908434718175 26.302572366403055 1.038484152078187 0 0 0
629 1 57.218880554465166 28.55417097811987 1.9396981472704178 0 0 -2
630 1 59.82079764550553 28.556153683887597 0.12489824409828403 0 0 0
631 1 54.61688369388378 28.552097391567525 0.9965763417450111 0 0 0
632 1 53.315454033198954 30.803015328684275 1.8957070248447878 0 0 -2
633 1 55.917575603154994 30.805366754377495 0.08057230469390901 0 0 0
634 1 58.51961946576536 30.80771368633736 1.0252582718649876 0 0 0
635 1 57.21812769458091 33.05878635573509 1.923872056950744 0 0 -2
636 1 59.82023349547671 33.061407700498805 0.1115360529211168 0 0 0
637 1 54.615921539781716 33.05610617477792 0.97857142478472 0 0 0
638 1 53.31388906441999 35.30639703866336 1.8748464500188045 0 0 -2
639 1 55.91625969718809 35.30933574430219 0.06184166376572946 0 0 0
640 1 58.518576508951384 35.312355231031006 1.0090222834805676 0 0 0
766 1 63.72319197 12.78896256 0.18204435 0 0 0
767 1 66.32471053 12.78935724 1.1207077 0 0 0
768 1 65.02391206 15.04168272 2.029240155279556 0 0 -2
769 1 67.62544492 15.04200543 0.20993764 0 0 0
770 1 62.42236239 15.041158 1.08992306 0 0 0
771 1 61.12149646 17.29325271 1.9969308952795561 0 0 -2
772 1 63.72308305 17.29392063 0.17814223 0 0 0
773 1 66.32464718 17.29438098 1.11834779 0 0 0
774 1 65.02381895 19.54666878 2.0258431552795564 0 0 -2
775 1 67.62539959 19.54704817 0.20822812 0 0 0
776 1 62.42221715 19.54605459 1.08488181 0 0 0
777 1 61.12130658 21.79806642 1.9905917752795563 0 0 -2
778 1 63.72295355 21.79885039 0.17355093 0 0 0
779 1 66.32457224 21.79939406 1.11556714 0 0 0
780 1 65.0240341672912 24.05261113203659 2.021164802080853 0 0 -2
781 1 67.62556614857012 24.053171710255928 0.20555492695896288 0 0 0
782 1 62.422428019769946 24.051732292150092 1.0782749179672129 0 0 0
783 1 61.12172006158021 26.304135471006813 1.9817037460774327 0 0 -2
784 1 63.723392450253726 26.30540877063158 0.1667093487071214 0 0 0
785 1 66.32494386559614 26.30632622542618 1.1108967933700724 0 0 0
786 1 65.0242127587406 28.559230023499385 2.014840259419856 0 0 -2
787 1 67.62572436047536 28.560127300707652 0.20169691029280526 0 0 0
788 1 62.42257783440105 28.557875332587322 1.0695921890803033 0 0 0
789 1 61.12154423666094 30.80989516370357 1.9708520630828816 0 0 -2
790 1 63.72331656162066 30.811742747964058 0.15840908076985605 0 0 0
791 1 66.32493766489769 30.813116653007157 1.1052926789293351 0 0 0
792 1 65.02398325091724 33.06570036117194 2.007116816876034 0 0 -2
793 1 67.62562139929776 33.067011355911376 0.19705328023609037 0 0 0
794 1 62.42219250010465 33.06377697920981 1.0589441784405622 0 0 0
795 1 61.12076854778387 35.31524413800595 1.9574507524506364 0 0 -2
796 1 63.722788917597285 35.317766965018784 0.14813935642775952 0 0 0
797 1 66.3246277761697 35.31969400353644 1.0983901590870069 0 0 0
924 1 68.92621745 12.78955801 2.0594760852795564 0 0 -2
930 1 68.92619669 17.29461584 2.058686305279556 0 0 -2
936 1 68.9261722 21.79967246 2.0577550552795563 0 0 -2
942 1 68.92640802005108 26.306833172436082 2.055336345409265 0 0 -2
948 1 68.92644161861088 30.81390774140918 2.052529236099907 0 0 -2
954 1 68.92631877539161 35.32083559439292 2.049153144075934 0 0 -2
1 1 12.99516496 55.56242582 2.4225450452795565 0 0 -2
2 1 12.99738206 60.06745112 2.3900117052795564 0 0 -2
3 1 11.69828279 62.31998682 0.53251426 0 0 0
4 1 13.00001949 64.57252804 2.3563966052795564 0 0 -2
5 1 11.70103657 66.82507272 0.49921966 0 0 0
6 1 10.40204375 69.07761434 1.4014690452795564 0 0 -2
7 1 13.00295471 69.07761386 2.322062745279556 0 0 -2
8 1 11.70399403 71.33015044 0.46544369 0 0 0
17 1 20.79398258 42.04864283 2.5386629352795564 0 0 -2
18 1 19.49374204 44.30072681 0.6797885 0 0 0
19 1 18.19368625 46.55291242 1.5797279752795563 0 0 -2
20 1 20.79445837 46.55305911 2.5083378252795563 0 0 -2
21 1 16.89381275 48.80518881 2.4797802852795563 0 0 -2
22 1 19.4945277 48.80528524 0.64876166 0 0 0
23 1 18.19478943 51.05760155 1.5481295752795563 0 0 -2
24 1 20.79546597 51.05767644 2.4756702352795563 0 0 -2
25 1 15.59411238 51.05754277 0.62124214 0 0 0
26 1 14.2945699 53.30995993 1.5217343252795563 0 0 -2
27 1 16.89522903 53.30999225 2.4477452152795562 0 0 -2
28 1 19.49587821 53.31003421 0.6155608 0 0 0
29 1 18.19646953 55.56246123 1.5145493252795563 0 0 -2
30 1 20.79709754 55.56248845 2.440765605279556 0 0 -2
31 1 15.59582547 55.56244094 0.58890701 0 0 0
32 1 14.29655284 57.81493191 1.4892344652795564 0 0 -2
33 1 16.89721222 57.81493933 2.4139392152795565 0 0 -2
34 1 19.49785062 57.81494999 0.58035442 0 0 0
35 1 18.19874383 60.06745399 1.4792130152795564 0 0 -2
36 1 20.79938899 60.06745768 2.4038578852795562 0 0 -2
37 1 15.59807421 60.06745198 0.55502514 0 0 0
38 1 14.29902133 62.31998519 1.4554195452795564 0 0 -2
39 1 16.89973869 62.31998375 2.3786375652795564 0 0 -2
40 1 19.50043247 62.31998264 0.54343832 0 0 0
41 1 18.20155298 64.57252392 1.4424671552795563 0 0 -2
42 1 20.8024014 64.57250477 2.364950375279556 0 0 -2
43 1 15.6007962 64.57252604 0.51991176 0 0 0
44 1 14.30187932 66.8250714 1.4206341152795563 0 0 -2
45 1 16.90270757 66.82506992 2.3422246252795564 0 0 -2
46 1 19.50351925 66.82506827 0.50524201 0 0 0
47 1 18.2047507 69.07761268 1.4047737752795564 0 0 -2
48 1 20.805414043283903 69.077776343497 2.3252870587080325 0 0 -2
49 1 15.60385743 69.07761331 0.48397566 0 0 0
50 1 14.3049696 71.3301504 1.3852983052795562 0 0 -2
51 1 16.9059429 71.33015036 2.3051785352795564 0 0 -2
52 1 19.50691359 71.33015032 0.46631243 0 0 0
96 1 25.99612875 37.54527751 1.6703192352795564 0 0 -2
97 1 28.59733637 37.54583643 2.6028839352795563 0 0 -2
98 1 23.39499438 37.54480564 0.73867253 0 0 0
99 1 22.09440356 39.796668 1.6387239252795562 0 0 -2
100 1 24.69543575 39.79704276 2.569685885279556 0 0 -2
101 1 27.29653221 39.7974921 0.74277279 0 0 0
102 1 25.9959043 42.04927741 1.6412025352795563 0 0 -2
103 1 28.59695599 42.04969996 2.573262505279556 0 0 -2
104 1 23.39491717 42.04892956 0.71010894 0 0 0
105 1 22.0945885 44.30093704 1.6092232452795563 0 0 -2
106 1 24.69547399 44.30119503 2.5394891852795562 0 0 -2
107 1 27.29640969 44.30151239 0.71190663 0 0 0
108 1 25.99608685 46.55346799 1.6092177252795563 0 0 -2
109 1 28.595670239209067 46.55303239344761 2.5395191409340048 0 0 -2
110 1 23.3952554 46.5532412 0.67895209 0 0 0
111 1 22.09525402 48.80540639 1.5772393352795564 0 0 -2
112 1 24.69599897 48.8055592 2.5065291452795564 0 0 -2
113 1 27.29544716235257 48.80517078127653 0.6771073174694818 0 0 0
114 1 25.99554043565482 51.05745516861963 1.5735573057992491 0 0 -2
115 1 28.59510926842335 51.05707505294922 2.5027192971684 0 0 -2
116 1 23.39614677 51.05777225 0.64517427 0 0 0
117 1 22.09651986 53.31008888 1.5428113552795564 0 0 -2
118 1 24.695958625007503 53.309846599479165 2.470214858324104 0 0 -2
119 1 27.29550026136739 53.3095202668481 0.6394805670869916 0 0 0
120 1 25.996322266300808 55.56206355653358 1.5353200838222003 0 0 -2
121 1 28.595763633149936 55.56165331886467 2.4628934023177482 0 0 -2
122 1 23.396744364426628 55.56231296502872 0.6084561852308037 0 0 0
123 1 22.09846727 57.81496509 1.5061025952795564 0 0 -2
124 1 24.697637001663114 57.81472673793843 2.431593717121863 0 0 -2
125 1 27.29703636354189 57.81439306112439 0.5990758728926573 0 0 0
126 1 25.99859618602897 60.06721587386379 1.4945798578171818 0 0 -2
127 1 28.59808636811737 60.066783346209114 2.4201521430915336 0 0 -2
128 1 23.399012713971295 60.06745520953903 0.5696123098892325 0 0 0
129 1 22.100439080113535 62.32000951722298 1.46694084123085 0 0 -2
130 1 24.7003138344753 62.31998829562924 2.3907105354753915 0 0 -2
131 1 27.30002148532099 62.3196949577038 0.5561264049160201 0 0 0
132 1 26.002105046087912 64.57254983296895 1.451676272402132 0 0 -2
133 1 28.60198813100176 64.5721792402606 2.3749123552418285 0 0 -2
134 1 23.402176776124094 64.57267908957064 0.5287976442215864 0 0 0
135 1 22.10384269518435 66.82529400267266 1.4265774909453082 0 0 -2
136 1 24.704134492236644 66.825311094707 2.348157578142371 0 0 -2
137 1 27.304351232329623 66.82507448070346 0.5111880188512463 0 0 0
138 1 26.006600591089352 69.07784149422656 1.4073561453272532 0 0 -2
139 1 28.60713144784749 69.07752677213531 2.3279381784988487 0 0 -2
140 1 23.406033297219672 69.07793251857653 0.4868923553600916 0 0 0
141 1 22.107770864700676 71.33044319568309 1.3854778037671955 0 0 -2
142 1 24.70865289899489 71.33047817215501 2.3047038780398985 0 0 -2
143 1 27.309531672280357 71.33028527442515 0.4651395439064691 0 0 0
211 1 33.80001405 37.54727766 1.7123339952795562 0 0 -2
212 1 36.4006523203754 37.54718473154657 2.6467952333318787 0 0 -2
213 1 31.19862792 37.54649756 0.77767504 0 0 0
214 1 29.8977048 39.79803087 1.6756270552795562 0 0 -2
215 1 32.49809452029104 39.79786899837172 2.608764521498122 0 0 -2
216 1 35.09898318070722 39.798270696858594 0.7842677639503634 0 0 0
217 1 33.7974198035536 42.04934065735564 1.6799612331237481 0 0 -2
218 1 36.39810548486127 42.04951721898972 2.6145276414535865 0 0 -2
219 1 31.19699881939237 42.049327456647205 0.7466245431865908 0 0 0
220 1 29.896195086194624 44.30107313117724 1.643130005986393 0 0 -2
221 1 32.49629680187798 44.30084090247657 2.575458769691731 0 0 -2
222 1 35.096586590720726 44.30075097215018 0.7502626517386004 0 0 0
223 1 33.79549560329019 46.55236583407349 1.6445263862024613 0 0 -2
224 1 36.395685780225115 46.552187396389016 2.5783390124889496 0 0 -2
225 1 31.195527442719545 46.55268150499388 0.7120499385907137 0 0 0
226 1 29.895123544217455 48.80477765165427 1.6073586340764037 0 0 -2
227 1 32.49484768709622 48.804328091393366 2.538676935538609 0 0 -2
228 1 35.094719520311074 48.80393294045958 0.7124624359804098 0 0 0
229 1 33.79429877561721 51.056041562721084 1.6052928850865846 0 0 -2
230 1 36.394049907941614 51.05555293852337 2.5378543748736218 0 0 -2
231 1 31.19466659368078 51.05657197066515 0.6740552724370813 0 0 0
232 1 29.89496996820616 53.309033839885316 1.5683420229905103 0 0 -2
233 1 32.4944490101107 53.308450333253944 2.4982021852642413 0 0 -2
234 1 35.09397245250344 53.30782950533365 0.6704725464500305 0 0 0
235 1 33.794564592096364 55.56041828357205 1.5620462210977668 0 0 -2
236 1 36.39398007478455 55.55970561387161 2.492759964231683 0 0 -2
237 1 31.19517034316513 55.56108763543324 0.6325645967952858 0 0 0
238 1 29.89642289301274 57.81388703795432 1.5260876640614378 0 0 -2
239 1 32.4957852850374 57.81323433645255 2.4539790011405116 0 0 -2
240 1 35.09512178208114 57.81248105650237 0.624140687316428 0 0 0
241 1 33.79691701828638 60.06546136242829 1.5148284585044403 0 0 -2
242 1 36.39624857141445 60.06463630635185 2.4430091266499856 0 0 -2
243 1 31.19753015551621 60.0661901829742 0.5876754289005729 0 0 0
244 1 29.899651899193337 62.319197088907046 1.4808610332064904 0 0 -2
245 1 32.49921013263729 62.318539272822804 2.4062537416431455 0 0 -2
246 1 35.098691219223944 62.31775387104476 0.5736644622019967 0 0 0
247 1 33.80156006275985 64.57091485626675 1.4640851321974886 0 0 -2
248 1 36.401223260928454 64.57009281278216 2.389028435935368 0 0 -2
249 1 31.201811171003207 64.57162107723782 0.5398300239390752 0 0 0
250 1 29.904513226273465 66.82463367358221 1.4332726435006982 0 0 -2
251 1 32.50461351426401 66.82402692441636 2.3556983124081383 0 0 -2
252 1 35.10464510372486 66.82328848497094 0.519770073885276 0 0 0
253 1 33.80807415621759 69.07638446965508 1.4108008335538225 0 0 -2
254 1 36.40848104927174 69.07562600582901 2.3319381226265885 0 0 -2
255 1 31.20762312557258 69.07702901759323 0.48989073244146764 0 0 0
256 1 29.910405863400715 71.32989468477189 1.3843271285647203 0 0 -2
257 1 32.51127454607508 71.3293432582363 2.3034882527783043 0 0 -2
258 1 35.11213921592474 71.32866530698183 0.46384498598562696 0 0 0
344 1 41.6032313943815 37.54850101519636 1.7615871339515508 0 0 -2
345 1 44.20492605796399 37.54970637449968 2.7006732526811725 0 0 -2
346 1 39.00178494540282 37.54766109206825 0.8240497380862928 0 0 0
347 1 37.699906953001715 39.798500062493915 1.719589415633151 0 0 -2
348 1 40.30105849261303 39.79903496575479 2.656378953036391 0 0 -2
349 1 42.902521748072715 39.79998177246522 0.8360010826362496 0 0 0
350 1 41.600148107514386 42.05041839179844 1.7292287833107598 0 0 -2
351 1 44.20163432925883 42.05148210532877 2.668547122296024 0 0 -2
352 1 38.99899112059732 42.049801766098895 0.791696970008075 0 0 0
353 1 37.697146955907044 44.30083015296545 1.6852154804976462 0 0 -2
354 1 40.297965976135565 44.301132313693486 2.6217274948737703 0 0 -2
355 1 42.89909848369822 44.301804631044135 0.8012396406434626 0 0 0
356 1 41.596861415291976 46.55248150469827 1.6919549899073263 0 0 -2
357 1 44.19794810598704 46.55318444571105 2.631011561990906 0 0 -2
358 1 38.996128301948914 46.55219410681211 0.7548910178090809 0 0 0
359 1 37.69478699695193 48.803661485523826 1.6464623480565772 0 0 -2
360 1 40.29510241014757 48.80359429117405 2.582124216270297 0 0 -2
361 1 42.895727498451706 48.80384247390627 0.7609386565441738 0 0 0
362 1 41.59414380780719 51.05503059152788 1.6491187916569576 0 0 -2
363 1 44.19463036995478 51.0552134808052 2.5871868603347217 0 0 -2
364 1 38.993977023379436 51.05518466068076 0.7131899104819124 0 0 0
365 1 37.693589408418 53.30724224894209 1.602922171013678 0 0 -2
366 1 40.29335725340046 53.30676941432949 2.5370347882743274 0 0 -2
367 1 42.893348523705605 53.30651193915081 0.7143507886857173 0 0 0
368 1 41.59305294253065 55.55843308395428 1.600126203808635 0 0 -2
369 1 44.19284236769904 55.558056292314625 2.5362229332463904 0 0 -2
370 1 38.99345773379022 55.55901710385984 0.6661703949308071 0 0 0
371 1 37.69444968526139 57.811680470691755 1.5543353406565492 0 0 -2
372 1 40.29380041134935 57.81089417209624 2.4860518538930743 0 0 -2
373 1 42.89322336821438 57.8101978368257 0.6608503499459796 0 0 0
374 1 41.594795816443366 60.062889360031434 1.5446310153596514 0 0 -2
375 1 44.194072434682454 60.062089406344505 2.477507071495147 0 0 -2
376 1 38.99553430792539 60.06376094127382 0.6136640182819978 0 0 0
377 1 37.69809054485404 62.316876949289444 1.5008191673074431 0 0 -2
378 1 40.297408796226335 62.31594836978493 2.4291684809555503 0 0 -2
379 1 42.89665543493529 62.31501429948853 0.6002346325646517 0 0 0
380 1 41.600253774462196 64.56823321254039 1.4829091842351811 0 0 -2
381 1 44.19961071188655 64.56726886143603 2.4111291968992714 0 0 -2
382 1 39.000790398156006 64.56918743663867 0.5560472837468312 0 0 0
383 1 37.70459787897705 66.82244904421164 1.4431416838267428 0 0 -2
384 1 40.30446073431484 66.82153871194218 2.3671710977853513 0 0 -2
385 1 42.904222619916986 66.82058827904496 0.5332628997393005 0 0 0
386 1 41.60914075254208 69.0738875577346 1.4163757268040227 0 0 -2
387 1 44.20938154612229 69.07296606603715 2.338640560680914 0 0 -2
388 1 39.008838612330145 69.07478394030194 0.49458603995679395 0 0 0
389 1 37.7130022966017 71.32789285785354 1.3829461703086388 0 0 -2
390 1 40.313866982104194 71.32705637623349 2.302011618623189 0 0 -2
391 1 42.9147380070307 71.32618550757675 0.46225936274409507 0 0 0
489 1 49.40908180136312 37.553606653153594 1.8251074982729534 0 0 -2
490 1 52.01147162787093 37.55628821298753 0.010588418281993825 0 0 0
491 1 46.80688200449008 37.551403232984875 0.882633734247676 0 0 0
492 1 45.50428505583674 39.801393313979446 1.776140121957855 0 0 -2
493 1 48.10635263403251 39.80334895740356 2.7181509433184297 0 0 -2
494 1 50.70870149824691 39.805875097570244 0.9033660898917337 0 0 0
495 1 49.40566592862871 42.0553035428149 1.794480748645697 0 0 -2
496 1 52.00819210540457 42.05817200057077 2.7401838008178525 0 0 -2
497 1 46.80347139285267 42.05308431145929 0.8510569706031523 0 0 0
498 1 45.500601941367314 44.30297569652494 1.7415357885492373 0 0 -2
499 1 48.10251432254116 44.30475870603718 2.6840728757733023 0 0 -2
500 1 50.70484974492686 44.30724601982601 0.8702976267213608 0 0 0
501 1 49.401440524842116 46.556394898900585 1.7574731685193226 0 0 -2
502 1 52.003928980841565 46.55915427805469 2.7042449722080555 0 0 -2
503 1 46.7994560358911 46.55444337303483 0.8135678891345615 0 0 0
504 1 45.49674184546712 48.804547469177336 1.700769142453133 0 0 -2
505 1 48.09823240634067 48.80586844439486 2.6431931291685604 0 0 -2
506 1 50.70027814796419 48.80797147235879 0.8298195705402457 0 0 0
507 1 49.396975788576114 51.05723798036568 1.7125629702682696 0 0 -2
508 1 51.99906033920093 51.05946826971307 2.6596001183541147 0 0 -2
509 1 46.79553653549427 51.055887949660196 0.769001739344876 0 0 0
510 1 45.493658370868005 53.3066013762457 1.6528103964582206 0 0 -2
511 1 48.09440899513627 53.307207844812574 2.59411300343115 0 0 -2
512 1 50.695747386170645 53.30854532477205 0.7800564950284141 0 0 0
513 1 49.39346923306858 55.55852065485941 1.6580593058984856 0 0 -2
514 1 51.994638455824436 55.55979433053014 2.60390742859367 0 0 -2
515 1 46.79293280872536 55.55802380783117 0.7161529905698483 0 0 0
516 1 45.492793978384675 57.809691105465205 1.5967145585844793 0 0 -2
517 1 48.09262528155563 57.80951187235709 2.53542995435955 0 0 -2
518 1 50.69288206117631 57.80985639985206 0.7189554394493107 0 0 0
519 1 49.39298236618128 60.061112213902746 1.5923557398519748 0 0 -2
520 1 51.99290148441369 60.06126753487084 2.534674733642543 0 0 -2
521 1 46.7934312223673 60.0614528772069 0.6540100048545896 0 0 0
522 1 45.49585486543681 62.3141326707916 1.5319689081877716 0 0 -2
523 1 48.095057207714476 62.31338328035832 2.466142051487943 0 0 -2
524 1 50.694356688976924 62.312885978118764 0.6447429661573019 0 0 0
525 1 49.39805444099913 64.565518184465 1.5146424927111364 0 0 -2
526 1 51.99723385485926 64.56489909332842 2.4501146530979807 0 0 -2
527 1 46.79886855861646 64.566341982421 0.5823331279500372 0 0 0
528 1 45.50387425709447 66.81963093622976 1.4592185115758713 0 0 -2
529 1 48.10341179134671 66.81870589693341 2.386617598250957 0 0 -2
530 1 50.70284458916364 66.81786611754457 0.5572082841226416 0 0 0
531 1 49.40966883467162 69.07117365728836 1.4265124282570862 0 0 -2
532 1 52.009732799478954 69.07038263303728 2.3514717216003604 0 0 -2
533 1 46.80955700398069 69.07204991077252 0.5027596524056703 0 0 0
534 1 45.51562321173967 71.32530979043486 1.3812327110123463 0 0 -2
535 1 48.11653626775731 71.3244598795993 2.300143860343014 0 0 -2
536 1 50.71750189046993 71.32367026234341 0.46019973750201965 0 0 0
641 1 57.216506284366226 37.56269819676719 1.9043764732720654 0 0 -2
642 1 59.8189643707028 37.56606567496323 0.09493192561164494 0 0 0
643 1 54.61397685209812 37.55936777553062 0.9566249777989329 0 0 0
644 1 53.31127274393999 39.80894021938847 1.849399704100216 0 0 -2
645 1 55.913976846995055 39.812440995891755 0.03869874300012505 0 0 0
646 1 58.51670255229199 39.81618814234711 0.9887327325930548 0 0 0
647 1 57.21392751575562 42.06561022956714 1.879910695185566 0 0 -2
648 1 59.81689143477493 42.069800733023506 0.07383200613373102 0 0 0
649 1 54.610982200528575 42.061651891568076 0.9294756831523412 0 0 0
650 1 53.3075823528788 44.310479111911945 1.8179500985260342 0 0 -2
651 1 55.910633015828914 44.3144117143338 0.009597461125872517 0 0 0
652 1 58.513867981411316 44.318870945197865 0.9628009775375344 0 0 0
653 1 57.210257845356786 46.56720961695678 1.8485496436117583 0 0 -2
654 1 59.81383873052264 46.572221503339215 0.04627327932115531 0 0 0
655 1 54.606898953254294 46.562777958863386 0.8953635369744981 0 0 0
656 1 53.30292778628553 48.81100515905014 1.7785934228564984 0 0 -2
657 1 55.90616782277758 48.81504988046201 2.7310947581277945 0 0 -2
658 1 58.50989017073984 48.820037980072726 0.92879366274388 0 0 0
659 1 57.20541611557096 51.06727684248927 1.8074436676246095 0 0 -2
660 1 59.80956671552099 51.07289345637537 0.009124895762002786 0 0 0
661 1 54.601872187936074 51.062775084274044 0.8518741740528015 0 0 0
662 1 53.29783160872452 53.310868462133776 1.7288664818438166 0 0 -2
663 1 55.90079494256489 53.31444138721481 2.6825154654779024 0 0 -2
664 1 58.50467654657123 53.31944323125299 0.8829690445746587 0 0 0
665 1 57.19974572095056 55.565985044335406 1.7524538215968932 0 0 -2
666 1 59.803997129992936 55.57153960236872 2.716114793459358 0 0 -2
667 1 54.59666010678541 55.56216231072326 0.7958327410822373 0 0 0
668 1 53.29379458426993 57.81100607864634 1.6658057741484986 0 0 -2
669 1 55.89566165944068 57.81335399317994 2.6184534028888518 0 0 -2
670 1 58.49881276854482 57.81739606754273 0.8196799282412184 0 0 0
671 1 57.19504749924546 60.064473868717 1.6779326274117214 0 0 -2
672 1 59.79817034446916 60.068684719684185 2.641702670435059 0 0 -2
673 1 54.59345887124159 60.062228940300834 0.7234411153955256 0 0 0
674 1 53.29392234642928 62.312833699941024 1.5864184961349366 0 0 -2
675 1 55.89404751913863 62.3135520503144 2.533996173575266 0 0 -2
676 1 58.49522024249884 62.31560008346765 0.7310879995902381 0 0 0
677 1 57.19627310436062 64.56511740348091 1.5775390350650045 0 0 -2
678 1 59.79696753876104 64.56689497223059 2.533488755544978 0 0 -2
679 1 54.59654622398355 64.56465864148115 0.631235202487759 0 0 0
680 1 53.302211502550676 66.81719489315286 1.4893468456355774 0 0 -2
681 1 55.90161587802675 66.81684253539505 2.425555580550082 0 0 -2
682 1 58.50129848799756 66.81711062527083 0.6092811745628419 0 0 0
683 1 57.2099878044569 69.06940900193916 1.4488949905783062 0 0 -2
684 1 59.81061471694804 69.06966925472165 2.382954635554175 0 0 -2
685 1 54.609797913441895 69.06974880361264 0.519424612203735 0 0 0
686 1 53.318566700103524 71.3229856827133 1.3789266605240316 0 0 -1
687 1 55.91982454994019 71.32247735787391 2.2975108929902146 0 0 -2
688 1 58.52148221927907 71.32228925028656 0.4571198249791646 0 0 0
798 1 65.02338144026508 37.57182456836966 1.9974525002742782 0 0 -2
799 1 67.62530098906126 37.57365579176181 0.19128746084376122 0 0 0
800 1 62.421270978824616 37.56920428097831 1.0456379988736064 0 0 0
801 1 61.1193360062554 39.81990750534434 1.9405521931869194 0 0 -2
802 1 63.72178773316521 39.82326202218299 0.1351172788850764 0 0 0
803 1 66.32401897101809 39.82589606688263 1.089638273916941 0 0 0
804 1 65.0223668966211 42.07738125696678 1.9849853140502314 0 0 -2
805 1 67.62475356500886 42.0799073242242 0.183871149013855 0 0 0
806 1 62.4197374254029 42.07386761568887 1.0285644374541365 0 0 0
807 1 61.117117402976355 44.32353208886288 1.9186482519017891 0 0 -2
808 1 63.72021654399003 44.327928085276355 0.11805984325792426 0 0 0
809 1 66.32305986861058 44.33150892627522 1.0781205850017532 0 0 0
810 1 65.0208253193138 46.582060766421876 1.9682504805689305 0 0 -2
811 1 67.6239258611567 46.58556158692633 0.17388791609059617 0 0 0
812 1 62.417427589696786 46.57737880869174 1.0059046408104275 0 0 0
813 1 61.113883305399874 48.82566418992311 1.8892852406379483 0 0 -2
814 1 63.7178742780149 48.83133538930913 0.09476922447181592 0 0 0
815 1 66.32162410895292 48.83621565893866 1.0622043800772498 0 0 0
816 1 65.01851954276576 51.08538696571969 1.9445963302806797 0 0 -2
817 1 67.62269040919402 51.09029747954243 0.1596056083647079 0 0 0
818 1 62.41405147756883 51.079205820620246 0.9745517451192666 0 0 0
819 1 61.10933249256548 53.32578012087244 1.8483482488343423 0 0 -2
820 1 63.71440505011548 53.33285655370608 0.06125582825844185 0 0 0
821 1 66.31944436200764 53.33949124000321 1.0387227504987353 0 0 0
822 1 65.01502925296968 55.586623042363335 1.908827058026408 0 0 -2
823 1 67.62076911194485 55.59353560659342 0.13735780923837598 0 0 0
824 1 62.40925190328696 55.578715390515505 0.9289562754307233 0 0 0
825 1 61.103463953838 57.82357087210945 1.7887936867076057 0 0 -2
826 1 63.7094353587345 57.83174278017913 0.0097943430858337 0 0 0
827 1 66.31605646714596 57.84047791363943 1.000834201920623 0 0 0
828 1 65.01011113556062 60.084961889657926 1.8497523613351787 0 0 -2
829 1 67.61773383835953 60.09427736147042 0.09813334153556919 0 0 0
830 1 62.40325340822858 60.07557190609549 0.8588576851597357 0 0 0
831 1 61.09818396298866 62.31990121783165 1.6987999992588045 0 0 -2
832 1 63.70377510850972 62.32765121884926 2.683328469525698 0 0 -2
833 1 66.31183266400616 62.33857537415607 0.9314552834536903 0 0 0
834 1 65.00592173825837 64.57996985867675 1.740959979268186 0 0 -2
835 1 67.61635028382763 64.59323115025806 0.013788792018568872 0 0 0
836 1 62.39966620919414 64.5712035727042 0.7457475850661643 0 0 0
837 1 61.10183003595269 66.81864633299901 1.5621648093889116 0 0 -2
838 1 63.704418048451544 66.82289622300235 2.5334445842070163 0 0 -2
839 1 66.3127101521479 66.8332862660848 0.781006998491786 0 0 0
840 1 65.0172984373121 69.07639239420044 1.527748316298685 0 0 -2
841 1 67.62595333992009 69.0868020372658 2.5352103263492927 0 0 -2
842 1 62.41229678370499 69.07123786446284 0.5667239536344423 0 0 0
843 1 61.12401633516758 71.32279243642549 1.3752462612504104 0 0 -1
844 1 63.72895530139562 71.3251603037123 2.2933155554353903 0 0 -2
845 1 66.33782765175357 71.33198154604746 0.4559625781415818 0 0 0
960 1 68.9260568315126 39.827496943420805 2.0449413160752465 0 0 -2
965 1 70.22695715711855 42.08109737416822 1.142255523264317 0 0 0
966 1 68.92564516989715 44.333750981227894 2.0394534411276792 0 0 -2
971 1 70.2267703097814 46.587266229083326 1.1395385902797508 0 0 0