relaxed_screw_with_Be_sub.lammps-data (written by ASE) 

1926 	 atoms 
2  atom types
0.0      140.45393781036688  xlo xhi
0.0      144.16198898410357  ylo yhi
0.0      2.7587758852795563  zlo zhi


Atoms 

     1   1             12.99516496      55.562425820000001    -0.33623083999999998
     2   1             12.99738206      60.067451120000001             -0.36876418
     3   1             11.69828279      62.319986819999997     0.53251426000000002
     4   1             13.00001949      64.572528039999995    -0.40237928000000001
     5   1      11.701036569999999      66.825072719999994     0.49921966000000001
     6   1      10.402043750000001      69.077614339999997     -1.3573068399999999
     7   1      13.002954709999999             69.07761386             -0.43671314
     8   1             11.70399403      71.330150439999997     0.46544369000000002
     9   1      10.404974429999999      73.582680499999995      1.3683396000000001
    10   1      13.006017679999999      73.582680370000006      2.2874295899999999
    11   1      11.706981949999999      75.835204360000006      3.1903707699999999
    12   1             13.00901657      78.087723209999993      2.2529416699999998
    13   1      11.709822020000001      80.340242439999997              3.15686373
    14   1      13.011770479999999      82.592763349999998      2.2190315699999998
    15   1      11.712359790000001      84.845293620000007      3.1240861600000001
    16   1      13.014138600000001      87.097840099999999      2.1860855699999999
    17   1      20.793982580000002      42.048642829999999             -0.22011295
    18   1      19.493742040000001             44.30072681     0.67978850000000002
    19   1      18.193686249999999      46.552912419999998             -1.17904791
    20   1      20.794458370000001             46.55305911    -0.25043806000000002
    21   1      16.893812749999999      48.805188809999997    -0.27899560000000001
    22   1      19.494527699999999      48.805285240000003     0.64876166000000002
    23   1             18.19478943      51.057601550000001             -1.21064631
    24   1      20.795465969999999      51.057676440000002    -0.28310564999999999
    25   1             15.59411238      51.057542769999998              0.62124214
    26   1      14.294569900000001      53.309959929999998             -1.23704156
    27   1      16.895229029999999      53.309992250000001    -0.31103067000000001
    28   1      19.495878210000001      53.310034209999998     0.61556080000000002
    29   1      18.196469530000002      55.562461229999997             -1.24422656
    30   1      20.797097539999999      55.562488449999996    -0.31801027999999998
    31   1      15.595825469999999      55.562440940000002     0.58890701000000001
    32   1             14.29655284      57.814931909999999     -1.2695414199999999
    33   1             16.89721222      57.814939330000001    -0.34483667000000001
    34   1      19.497850620000001      57.814949990000002     0.58035442000000004
    35   1      18.198743830000002      60.067453989999997     -1.2795628699999999
    36   1      20.799388990000001      60.067457679999997    -0.35491800000000001
    37   1             15.59807421      60.067451980000001     0.55502514000000003
    38   1             14.29902133      62.319985189999997     -1.3033563399999999
    39   1             16.89973869      62.319983749999999    -0.38013831999999997
    40   1             19.50043247      62.319982639999999     0.54343832000000003
    41   1      18.201552979999999      64.572523919999995             -1.31630873
    42   1      20.802401400000001      64.572504769999995    -0.39382550999999999
    43   1              15.6007962             64.57252604     0.51991175999999995
    44   1      14.301879319999999      66.825071399999999             -1.33814177
    45   1             16.90270757      66.825069920000004    -0.41655125999999998
    46   1             19.50351925      66.825068270000003     0.50524201000000002
    47   1      18.204750700000002      69.077612680000001     -1.3540021099999999
    48   1      20.805594589999998      69.077565649999997    -0.43344390999999999
    49   1             15.60385743      69.077613310000004     0.48397565999999997
    50   1              14.3049696      71.330150399999994     -1.3734775800000001
    51   1      16.905942899999999      71.330150360000005    -0.45359735000000001
    52   1             19.50691359      71.330150320000001              0.46631243
    53   1             18.20811745      73.582680060000001              1.36668319
    54   1      20.808960630000001      73.582636239999999              2.28531095
    55   1             15.60706514             73.58268022      3.2064718000000001
    56   1             14.30809475      75.835203590000006              1.34987908
    57   1      16.909218389999999      75.835202719999998              2.26803629
    58   1      19.510354490000001      75.835201729999994              3.18604712
    59   1      18.211399230000001      78.087719710000002              1.32878557
    60   1      20.812248100000001      78.087712150000002      2.2455467499999999
    61   1             15.61019931      78.087721549999998      3.1703589000000001
    62   1             14.31105097      80.340240460000004              1.31485096
    63   1      16.912299699999998      80.340238420000006      2.2313444599999999
    64   1      19.513570730000001             80.34023637      3.1475282099999999
    65   1      18.214359389999998      82.592761809999999      1.2916520300000001
    66   1      20.815690270000001      82.592762050000005               2.2067611
    67   1             15.61305359      82.592762339999993              3.13490834
    68   1             14.31366418             84.84529526      1.2806549599999999
    69   1      16.914989859999999      84.845298270000001              2.19560734
    70   1      19.516338489999999      84.845303189999996              3.11011163
    71   1             18.21682384      87.097861010000003              1.25578071
    72   1      20.818196019999998      87.097877949999997      2.1692393299999999
    73   1      15.615471530000001      87.097848810000002      3.1005577899999999
    74   1      14.315816290000001             89.35041536      1.2476651999999999
    75   1      16.917161159999999      89.350437319999997      2.1612457900000002
    76   1      19.518520410000001      89.350466409999996      3.0742722900000001
    77   1      18.218703900000001             91.60307632              1.22156117
    78   1              20.8200477             91.60313266              2.13360839
    79   1      15.617366260000001      91.603032679999998              3.06765759
    80   1      16.918764939999999      93.855706740000002      2.1285745700000001
    81   1      19.520074709999999      93.855782680000004      3.0403539799999999
    82   1      18.219993370000001      96.108452720000003              1.18926153
    83   1      20.821254580000002      96.108573399999997      2.1001529799999998
    84   1      15.618720659999999      96.108356029999996              3.03645838
    85   1             16.91982101      98.361140070000005      2.0977989699999999
    86   1              19.5210385      98.361285159999994      3.0085684499999998
    87   1      18.220747660000001              100.614011      1.1590348100000001
    88   1             20.82189412      100.61421679999999      2.0690208299999999
    89   1      19.521498520000002            102.86697882      2.9790115400000001
    90   1      20.822077620000002            105.12005046      2.0402478099999999
    91   1      27.297607159999998             30.78985729     0.79591301000000003
    92   1      25.996617560000001             33.04140846     -1.0620542900000001
    93   1             28.59795055      33.042087709999997    -0.12923014999999999
    94   1      24.695739069999998             35.29305446             -0.16156387
    95   1      27.296975249999999      35.293629150000001     0.77070534999999996
    96   1             25.99612875      37.545277509999998     -1.0884566499999999
    97   1      28.597336370000001      37.545836430000001             -0.15589195
    98   1             23.39499438             37.54480564     0.73867252999999999
    99   1             22.09440356      39.796667999999997     -1.1200519600000001
   100   1      24.695435750000001      39.797042759999997    -0.18909000000000001
   101   1      27.296532209999999      39.797492099999999     0.74277278999999996
   102   1      25.995904299999999      42.049277410000002             -1.11757335
   103   1      28.596955990000001      42.049699959999998    -0.18551338000000001
   104   1      23.394917169999999      42.048929559999998     0.71010894000000002
   105   1              22.0945885      44.300937040000001             -1.14955264
   106   1             24.69547399      44.301195030000002              -0.2192867
   107   1      27.296409690000001      44.301512389999999     0.71190662999999998
   108   1      25.996086850000001      46.553467990000001             -1.14955816
   109   1      28.597292719999999      46.554007419999998    -0.21919172000000001
   110   1              23.3952554      46.553241200000002     0.67895209000000001
   111   1      22.095254019999999      48.805406390000002     -1.1815365499999999
   112   1      24.695998970000002      48.805559199999998    -0.25224674000000002
   113   1      27.297142740000002      48.805987860000002              0.67710397
   114   1             25.99722727              51.0580943             -1.18528195
   115   1             28.59825726      51.058471369999999    -0.25610920999999998
   116   1      23.396146770000001      51.057772249999999     0.64517427000000005
   117   1      22.096519860000001      53.310088880000002     -1.2159645299999999
   118   1      24.697531909999999      53.310315189999997    -0.28866281999999999
   119   1      27.298497170000001      53.310605449999997     0.63933971999999994
   120   1              25.9989308             55.56284265     -1.2236309599999999
   121   1      28.599865479999998             55.56313205             -0.29607316
   122   1      23.398020070000001      55.562627079999999     0.60835262000000001
   123   1             22.09846727      57.814965090000001     -1.2526732899999999
   124   1             24.69950055      57.815149169999998             -0.32731515
   125   1      27.300442449999998      57.815379900000003     0.59886751000000005
   126   1             26.00120686      60.067691179999997     -1.2643852200000001
   127   1             28.60208424      60.067941130000001    -0.33882706000000001
   128   1             23.40031222             60.06751637     0.56949380999999999
   129   1             22.10131415      62.319986470000003     -1.2919273200000001
   130   1      24.702156209999998      62.320074169999998    -0.36820238999999999
   131   1              27.3030021      62.320272860000003     0.55597801000000002
   132   1      26.004056649999999      64.572664110000005     -1.3071507499999999
   133   1      28.604871670000001      64.572888820000003    -0.38387875999999999
   134   1      23.403228370000001      64.572530450000002     0.52874997000000001
   135   1      22.104370849999999      66.825031060000001             -1.33218262
   136   1      24.705205070000002      66.825104350000004    -0.41056353000000001
   137   1      27.306017529999998      66.825281380000007               0.5113143
   138   1      26.007231829999998      69.077709499999997     -1.3511613200000001
   139   1      28.608031709999999      69.077933880000003    -0.43043379999999998
   140   1             23.40641823      69.077579229999998              0.48702866
   141   1      22.107687769999998      71.330092919999998             -1.37311498
   142   1      24.708492700000001      71.330168810000004    -0.45371023999999999
   143   1      27.309290149999999      71.330353599999995              0.46569895
   144   1             26.01056187      73.582797709999994              1.36313595
   145   1      28.611353080000001      73.583040130000001      2.2812277999999999
   146   1      23.409768119999999      73.582656540000002              3.20367501
   147   1      22.111053940000001             75.83517578      1.3446626399999999
   148   1      24.711831310000001      75.835265550000003      2.2618700199999999
   149   1      27.312612059999999      75.835471900000002      3.1788101700000002
   150   1      26.013840080000001      78.087920949999997      1.3190412499999999
   151   1             28.61461006      78.088199239999994              2.23457135
   152   1      23.413065360000001      78.087750459999995      3.1618644100000002
   153   1      22.114299939999999      80.340243270000002      1.3043164599999999
   154   1      24.715042329999999      80.340384619999995              2.21941963
   155   1              27.3157782      80.340639179999997      3.1340230500000001
   156   1             26.01689142      82.593104019999998      1.2761587999999999
   157   1      28.617604180000001      82.593424819999996      2.1893424600000002
   158   1      23.416209139999999      82.592896539999998      3.1210964300000001
   159   1      22.117134239999999      84.845409689999997      1.2652224299999999
   160   1             24.71789514      84.845582359999995      2.1784242800000002
   161   1      27.318601390000001      84.845870820000002      3.0909424400000001
   162   1      26.019539460000001      87.098311949999996              1.23517242
   163   1      28.620200000000001      87.098713610000004      2.1463391700000001
   164   1      23.418839680000001      87.098047149999999              3.08196242
   165   1      22.119892719999999      89.350504999999998      1.2278918299999999
   166   1      24.720432429999999              89.3507721      2.1394683099999998
   167   1      27.321053289999998      89.351145829999993      3.0502156199999999
   168   1      26.021844560000002      91.603599380000006              1.19660419
   169   1      28.622382630000001      91.604098710000002      2.1061256899999998
   170   1      23.421394060000001             91.60320566      3.0449374599999999
   171   1      22.121379529999999      93.855879090000002      1.1926517299999999
   172   1      24.722673180000001      93.856002009999997      2.1029265700000002
   173   1      27.323041969999998      93.856544360000001              3.01226102
   174   1      26.023713300000001      96.108914780000006      1.1607444600000001
   175   1      28.624007559999999      96.109619710000004      2.0690122799999999
   176   1      23.422497490000001      96.108724600000002      3.0102718999999998
   177   1      22.122231930000002              98.3614642      1.1598193800000001
   178   1      24.723392459999999      98.361685840000007      2.0690155899999998
   179   1      27.324509190000001      98.361961050000005      2.9772808799999999
   180   1              26.0240653            100.61477536      1.1277596000000001
   181   1      28.625067399999999      100.61515214000001      2.0350994600000001
   182   1             23.42300345              100.614468      2.9782173200000002
   183   1              22.1225612      102.86725731999999              1.12947346
   184   1      24.723574240000001      102.86759360000001      2.0378842700000002
   185   1      27.324526519999999      102.86800015999999              2.94538068
   186   1      26.023957200000002      105.12084453999999              1.09768435
   187   1             28.62479514            105.12136061      2.0044255400000002
   188   1      23.423047700000001            105.12041238      2.9487810900000002
   189   1      22.122494710000002            107.37322909      1.1015892599999999
   190   1      24.723367759999999      107.37368293999999              2.00946924
   191   1      27.324171759999999            107.37421864      2.9164787400000001
   192   1             26.02354055            109.62706495      1.0703878499999999
   193   1      28.624242200000001            109.62770788              1.97679619
   194   1      27.323588699999998            111.88054954      2.8903822699999999
   195   1      28.623536720000001            114.13412362               1.9519643
   196   1      36.404279879999997      24.037784039999998   -0.039531810000000001
   197   1      32.501384459999997      26.287942619999999   -0.072828710000000005
   198   1      35.103010439999998      26.289008620000001     0.86206322999999996
   199   1      33.801752159999999      28.540248800000001             -0.99573928
   200   1      36.403396860000001      28.541347980000001   -0.060233330000000002
   201   1      31.200181189999999             28.53926371     0.82844653000000001
   202   1      29.899028099999999      30.790638600000001             -1.02955503
   203   1      32.500527900000002             30.79152852   -0.095348299999999997
   204   1      35.102109429999999             30.79253653     0.83981276999999999
   205   1      33.800864359999998             33.04377324     -1.0195422300000001
   206   1      36.402455199999999      33.044803659999999   -0.083770280000000003
   207   1      31.199364190000001      33.042871820000002              0.80451043
   208   1      29.898290230000001      35.294301300000001             -1.05487825
   209   1      32.499692609999997             35.29508526             -0.12068688
   210   1             35.10119005      35.295995939999997     0.81458213999999995
   211   1      33.800014050000001      37.547277659999999     -1.0464418900000001
   212   1      36.401512570000001      37.548292719999999             -0.11171441
   213   1             31.19862792      37.546497559999999     0.77767503999999998
   214   1              29.8977048      39.798030869999998     -1.0831488300000001
   215   1      32.499088550000003      39.798838869999997    -0.14982947999999999
   216   1      35.100476800000003      39.799650790000001     0.78455019999999998
   217   1      33.799617230000003             42.05116718             -1.07849599
   218   1      36.400976589999999      42.051923240000001             -0.14379775
   219   1             31.19828197             42.05044402     0.74680336000000003
   220   1      29.897676740000001      44.302159639999999     -1.1155157899999999
   221   1      32.498932779999997      44.302803709999999    -0.18303960999999999
   222   1      35.100219979999999      44.303472790000001     0.75067720000000004
   223   1      33.799673830000003      46.555153269999998             -1.11393093
   224   1      36.400898419999997             46.55575821    -0.17997601999999999
   225   1      31.198470189999998      46.554564759999998              0.71222805
   226   1      29.898244200000001      48.806454850000001     -1.1513567300000001
   227   1      32.499364759999999      48.806965830000003    -0.21992445999999999
   228   1             35.10049558             48.80749763     0.71277871999999998
   229   1             33.80034586      51.059371599999999     -1.1533444399999999
   230   1      36.401395620000002      51.059852589999998    -0.22063485999999999
   231   1      31.199300699999998      51.058906550000003     0.67407508999999999
   232   1      29.899474819999998      53.310966659999998             -1.19054617
   233   1      32.500448230000003             53.31136952    -0.26060491000000002
   234   1      35.101415899999999      53.311796970000003     0.67056404000000003
   235   1      33.801694259999998      55.563857030000001     -1.1968011199999999
   236   1               36.402583      55.564255729999999    -0.26596318000000002
   237   1      31.200787649999999      55.563476450000003              0.63240942
   238   1      29.901339849999999      57.815673189999998     -1.2329004699999999
   239   1      32.502208230000001      57.816013099999999    -0.30496463000000001
   240   1      35.103049059999996      57.816381630000002     0.62406013999999999
   241   1      33.803743869999998      60.068589299999999             -1.24407245
   242   1      36.404524250000001      60.068955019999997              -0.3157972
   243   1      31.202929879999999      60.068245769999997     0.58749185999999998
   244   1             29.90382945      62.320540790000003     -1.2780420699999999
   245   1      32.504629999999999      62.320860279999998             -0.35259836
   246   1             35.10539867      62.321214179999998     0.57366894999999996
   247   1             33.80643654      64.573521490000005     -1.2945506600000001
   248   1      36.407175100000003      64.573893179999999    -0.36949261999999999
   249   1      31.205667070000001      64.573180949999994     0.53987969000000002
   250   1      29.906813750000001      66.825541400000006             -1.32528062
   251   1              32.5075906      66.825864469999999    -0.40273336999999998
   252   1      35.108344219999999      66.826232750000003     0.52025891000000002
   253   1      33.809588009999999      69.078594640000006             -1.34720979
   254   1      36.410340769999998      69.078997099999995    -0.42585571999999999
   255   1              31.2088176      69.078234780000003     0.49046342999999998
   256   1      29.910081389999998      71.330627469999996     -1.3736670600000001
   257   1      32.510864509999998      71.330973450000002    -0.45425787000000001
   258   1      35.111638659999997      71.331375350000002     0.46515067999999998
   259   1      33.812927199999997      73.583762550000003              1.35808247
   260   1             36.41371153      73.584212089999994      2.2755404700000001
   261   1      31.212141259999999      73.583367109999998      3.1991469700000001
   262   1      29.913395189999999             75.83577554      1.3366636199999999
   263   1      32.514180869999997      75.836159429999995      2.2529213700000001
   264   1      35.114970200000002      75.836609480000007      3.1687301799999998
   265   1      33.816163299999999      78.089013539999996      1.3052683899999999
   266   1      36.416950329999999      78.089524949999998      2.2189891400000001
   267   1             31.21538365      78.088567609999998      3.1496046799999999
   268   1      29.916526879999999      80.340988640000006      1.2892643100000001
   269   1      32.517283769999999      80.341426679999998              2.20258624
   270   1             35.11804763      80.341941950000006      3.1150762300000001
   271   1      33.819058810000001      82.594366280000003      1.2545142199999999
   272   1      36.419791330000002      82.594960499999999              2.16496172
   273   1             31.21832929      82.593850189999998      3.1017665000000001
   274   1             29.91929872      84.846281309999995      1.2438829899999999
   275   1      32.519988699999999      84.846797129999999              2.15466318
   276   1      35.120673519999997      84.847402900000006               3.0643392
   277   1      33.821476820000001      87.099849169999999              1.20690192
   278   1      36.422095849999998      87.100554520000003      2.1147255899999999
   279   1             31.22084564             87.09923105      3.0565596899999998
   280   1      29.921640069999999             89.35166547      1.2012509099999999
   281   1      32.522211769999998      89.352296449999997      2.1099816300000001
   282   1      35.122765170000001      89.353023260000001      3.0174593500000002
   283   1      33.823370189999999      91.605490560000007      1.1631075200000001
   284   1      36.423833940000002      91.606329579999993      2.0690066800000002
   285   1      31.222884740000001      91.604742369999997      3.0146037300000001
   286   1      29.923497099999999      93.857181519999997              1.16181544
   287   1      32.523911230000003      93.857952600000004      2.0690098200000002
   288   1      35.124306099999998      93.858818529999994              2.97490933
   289   1      33.824711290000003      96.111296999999993              1.12341628
   290   1      36.425018739999999              96.1122771      2.0280360599999998
   291   1      31.224382469999998      96.110400069999997      2.9762068699999999
   292   1      29.924737660000002      98.362832839999996      1.1257638599999999
   293   1      32.525038600000002      98.363753369999998      2.0318973100000002
   294   1             35.12529078      98.364768080000005      2.9367702200000001
   295   1      33.825478179999998      100.61723155999999      1.0878087400000001
   296   1             36.42566918      100.61834896000001      1.9916837700000001
   297   1      31.225240929999998            100.61618417      2.9414216199999998
   298   1      29.925405439999999              102.868492      1.0930899700000001
   299   1      32.525537360000001            102.86966523      1.9985589500000001
   300   1      35.125726399999998      102.87081320999999      2.9028539499999999
   301   1      33.825658339999997      105.12325491999999      1.0560667100000001
   302   1      36.425823819999998            105.12445695      1.9596049099999999
   303   1             31.22554968            105.12197641      2.9101376299999999
   304   1      29.924896749999998            107.37485019      1.0637637099999999
   305   1      32.525532699999999             107.3755931      1.9687927700000001
   306   1      35.125654300000001      107.37690216999999      2.8728095699999998
   307   1      33.825390239999997             109.6293228              1.02792364
   308   1      36.425823399999999            109.63032246              1.93127107
   309   1      31.224861229999998      109.62845584999999      2.8822578600000002
   310   1      29.924195619999999              111.881299              1.03748668
   311   1      32.524720250000001            111.88215905      1.9424342400000001
   312   1      35.125158300000002            111.88314092      2.8463868699999999
   313   1      33.824505090000002      114.13593727999999      1.0031366500000001
   314   1              36.4248707      114.13701966000001              1.90669844
   315   1      31.224060089999998            114.13497447      2.8573923799999998
   316   1      29.923409400000001            116.38777077      1.0139664399999999
   317   1      32.523862800000003            116.38871377              1.91901897
   318   1      35.124244750000003      116.38976580000001      2.8231977399999999
   319   1      33.823628749999997      118.64249485000001     0.98119027000000003
   320   1      36.423964669999997            118.64361937              1.88511099
   321   1      41.608509130000002             19.53655775    -0.90864352000000004
   322   1      44.210255889999999      19.537867540000001    0.028101669999999999
   323   1      37.705541830000001      21.786552560000001    -0.94177714999999995
   324   1      40.307270430000003      21.787806410000002  -0.0057521400000000002
   325   1      42.909030450000003      21.789127000000001     0.93103791999999996
   326   1      41.607757970000002      24.040316969999999    -0.92561163999999996
   327   1      44.209553839999998      24.041699879999999    0.011990829999999999
   328   1      39.005996690000003             24.03900741     0.89640019999999998
   329   1      37.704699900000001      26.290180240000002    -0.96095145000000004
   330   1      40.306447339999998      26.291455119999998             -0.02429392
   331   1      42.908244340000003      26.292825529999998     0.91327864000000003
   332   1      41.606893169999999      28.543894640000001             -0.94509789
   333   1      44.208729380000001      28.545331789999999  -0.0066370700000000001
   334   1      39.005112519999997      28.542563919999999     0.87622820000000001
   335   1      37.703773210000001      30.793670120000002    -0.98279481000000002
   336   1      40.305516670000003      30.794933310000001   -0.045571390000000003
   337   1      42.907139659999999             30.79609851     0.89195464000000002
   338   1             41.60570577      33.047087589999997    -0.96891141000000003
   339   1      44.207419629999997      33.048225330000001   -0.030404230000000001
   340   1      39.004034820000001      33.045909450000003     0.85245941000000003
   341   1      37.702719899999998      35.297056120000001             -1.00869623
   342   1      40.304324649999998      35.298114939999998   -0.071874160000000006
   343   1      42.905997769999999             35.29918078     0.86625688999999995
   344   1      41.604662279999999      37.550235270000002    -0.99677411999999999
   345   1      44.206344360000003      37.551214299999998   -0.057749300000000003
   346   1      39.003055789999998             37.54926073     0.82443584999999997
   347   1      37.701925000000003      39.800525669999999             -1.03874903
   348   1      40.303449520000001             39.80140669             -0.10187773
   349   1              42.9050449      39.802294930000002     0.83651536000000004
   350   1      41.603887759999999      42.053505489999999     -1.0289283300000001
   351   1      44.205453919999997      42.054307270000002   -0.089642349999999996
   352   1             39.00239861      42.052710910000002     0.79225619000000003
   353   1      37.701539920000002      44.304159980000001     -1.0730160900000001
   354   1      40.302912970000001      44.304862559999997             -0.13640089
   355   1      42.904351599999998      44.305571020000002     0.80193303999999999
   356   1      41.603460519999999      46.556996009999999              -1.0661171
   357   1      44.204828450000001      46.557617479999998             -0.12701513
   358   1      39.002155700000003      46.556374529999999     0.75548749999999998