LAMMPS (28 Mar 2023 - Development)
OMP_NUM_THREADS environment is not set. Defaulting to 1 thread. (src/comm.cpp:98)
  using 1 OpenMP thread(s) per MPI task

# Create BCC lattice
units metal
atom_modify map array sort 0 0.0
lattice bcc 3.185 origin 0.0 0.0 0.0
Lattice spacing in x,y,z = 3.185 3.185 3.185
region box block 0 4 0 4 0 4
create_box 2 box
Created orthogonal box = (0 0 0) to (12.74 12.74 12.74)
  1 by 1 by 1 MPI processor grid
create_atoms 1 box
Created 128 atoms
  using lattice units in orthogonal box = (0 0 0) to (12.74 12.74 12.74)
  create_atoms CPU = 0.000 seconds
displace_atoms all random 0.01 0.01 0.01 12345
Displacing atoms ...
set atom 60 type 2
Setting atom values ...
  1 settings made for type
set atom 61 type 2
Setting atom values ...
  1 settings made for type
set atom 62 type 2
Setting atom values ...
  1 settings made for type

pair_style snap
pair_coeff * * ../potentials/WX_step_0019.snapcoeff ../potentials/WX.snapparam W X
SNAP Element = W, Radius 0.5, Weight 1
SNAP Element = X, Radius 0.5, Weight 1
Reading potential file ../potentials/WX.snapparam with DATE: 2017-02-20
SNAP keyword rcutfac 4.7
SNAP keyword twojmax 8
SNAP keyword rfac0 0.99363
SNAP keyword rmin0 0
SNAP keyword bzeroflag 1
SNAP keyword quadraticflag 0
SNAP keyword bnormflag 0
mass * 183.84
min_style fire
thermo 1
compute dD all snad/atom 4.7 0.99363 8 0.5 0.5 1 1 
run 0
WARNING: No fixes with time integration, atoms won't move (src/verlet.cpp:60)
Neighbor list info ...
  update: every = 1 steps, delay = 0 steps, check = yes
  max neighbors/atom: 2000, page size: 100000
  master list distance cutoff = 6.7
  ghost atom cutoff = 6.7
  binsize = 3.35, bins = 4 4 4
  2 neighbor lists, perpetual/occasional/extra = 1 1 0
  (1) pair snap, perpetual
      attributes: full, newton on
      pair build: full/bin/atomonly
      stencil: full/bin/3d
      bin: standard
  (2) compute snad/atom, occasional, copy from (1)
      attributes: full, newton on
      pair build: copy
      stencil: none
      bin: none
Per MPI rank memory allocation (min/avg/max) = 6.256 | 6.256 | 6.256 Mbytes
   Step          Temp          E_pair         E_mol          TotEng         Press     
         0   0             -1341.8114      0             -1341.8114     -236468.93    
Loop time of 6.25e-07 on 1 procs for 0 steps with 128 atoms

160.0% CPU use with 1 MPI tasks x 1 OpenMP threads

MPI task timing breakdown:
Section |  min time  |  avg time  |  max time  |%varavg| %total
---------------------------------------------------------------
Pair    | 0          | 0          | 0          |   0.0 |  0.00
Neigh   | 0          | 0          | 0          |   0.0 |  0.00
Comm    | 0          | 0          | 0          |   0.0 |  0.00
Output  | 0          | 0          | 0          |   0.0 |  0.00
Modify  | 0          | 0          | 0          |   0.0 |  0.00
Other   |            | 6.25e-07   |            |       |100.00

Nlocal:            128 ave         128 max         128 min
Histogram: 1 0 0 0 0 0 0 0 0 0
Nghost:           1113 ave        1113 max        1113 min
Histogram: 1 0 0 0 0 0 0 0 0 0
Neighs:              0 ave           0 max           0 min
Histogram: 1 0 0 0 0 0 0 0 0 0
FullNghs:         8192 ave        8192 max        8192 min
Histogram: 1 0 0 0 0 0 0 0 0 0

Total # of neighbors = 8192
Ave neighs/atom = 64
Neighbor list builds = 0
Dangerous builds = 0
run 0
WARNING: No fixes with time integration, atoms won't move (src/verlet.cpp:60)
Per MPI rank memory allocation (min/avg/max) = 48.17 | 48.17 | 48.17 Mbytes
   Step          Temp          E_pair         E_mol          TotEng         Press     
         0   0             -1341.8114      0             -1341.8114     -236468.93    
Loop time of 7.5e-07 on 1 procs for 0 steps with 128 atoms

133.3% CPU use with 1 MPI tasks x 1 OpenMP threads

MPI task timing breakdown:
Section |  min time  |  avg time  |  max time  |%varavg| %total
---------------------------------------------------------------
Pair    | 0          | 0          | 0          |   0.0 |  0.00
Neigh   | 0          | 0          | 0          |   0.0 |  0.00
Comm    | 0          | 0          | 0          |   0.0 |  0.00
Output  | 0          | 0          | 0          |   0.0 |  0.00
Modify  | 0          | 0          | 0          |   0.0 |  0.00
Other   |            | 7.5e-07    |            |       |100.00

Nlocal:            128 ave         128 max         128 min
Histogram: 1 0 0 0 0 0 0 0 0 0
Nghost:           1113 ave        1113 max        1113 min
Histogram: 1 0 0 0 0 0 0 0 0 0
Neighs:              0 ave           0 max           0 min
Histogram: 1 0 0 0 0 0 0 0 0 0
FullNghs:         8192 ave        8192 max        8192 min
Histogram: 1 0 0 0 0 0 0 0 0 0

Total # of neighbors = 8192
Ave neighs/atom = 64
Neighbor list builds = 0
Dangerous builds = 0
run 0
WARNING: No fixes with time integration, atoms won't move (src/verlet.cpp:60)
Per MPI rank memory allocation (min/avg/max) = 48.17 | 48.17 | 48.17 Mbytes
   Step          Temp          E_pair         E_mol          TotEng         Press     
         0   0             -1342.5192      0             -1342.5192     -238140.29    
Loop time of 8.33e-07 on 1 procs for 0 steps with 128 atoms

240.1% CPU use with 1 MPI tasks x 1 OpenMP threads

MPI task timing breakdown:
Section |  min time  |  avg time  |  max time  |%varavg| %total
---------------------------------------------------------------
Pair    | 0          | 0          | 0          |   0.0 |  0.00
Neigh   | 0          | 0          | 0          |   0.0 |  0.00
Comm    | 0          | 0          | 0          |   0.0 |  0.00
Output  | 0          | 0          | 0          |   0.0 |  0.00
Modify  | 0          | 0          | 0          |   0.0 |  0.00
Other   |            | 8.33e-07   |            |       |100.00

Nlocal:            128 ave         128 max         128 min
Histogram: 1 0 0 0 0 0 0 0 0 0
Nghost:           1113 ave        1113 max        1113 min
Histogram: 1 0 0 0 0 0 0 0 0 0
Neighs:              0 ave           0 max           0 min
Histogram: 1 0 0 0 0 0 0 0 0 0
FullNghs:         8192 ave        8192 max        8192 min
Histogram: 1 0 0 0 0 0 0 0 0 0

Total # of neighbors = 8192
Ave neighs/atom = 64
Neighbor list builds = 0
Dangerous builds = 0
run 0
WARNING: No fixes with time integration, atoms won't move (src/verlet.cpp:60)
Per MPI rank memory allocation (min/avg/max) = 48.17 | 48.17 | 48.17 Mbytes
   Step          Temp          E_pair         E_mol          TotEng         Press     
         0   0             -1342.8701      0             -1342.8701     -238974.42    
Loop time of 1e-06 on 1 procs for 0 steps with 128 atoms

700.0% CPU use with 1 MPI tasks x 1 OpenMP threads

MPI task timing breakdown:
Section |  min time  |  avg time  |  max time  |%varavg| %total
---------------------------------------------------------------
Pair    | 0          | 0          | 0          |   0.0 |  0.00
Neigh   | 0          | 0          | 0          |   0.0 |  0.00
Comm    | 0          | 0          | 0          |   0.0 |  0.00
Output  | 0          | 0          | 0          |   0.0 |  0.00
Modify  | 0          | 0          | 0          |   0.0 |  0.00
Other   |            | 1e-06      |            |       |100.00

Nlocal:            128 ave         128 max         128 min
Histogram: 1 0 0 0 0 0 0 0 0 0
Nghost:           1113 ave        1113 max        1113 min
Histogram: 1 0 0 0 0 0 0 0 0 0
Neighs:              0 ave           0 max           0 min
Histogram: 1 0 0 0 0 0 0 0 0 0
FullNghs:         8192 ave        8192 max        8192 min
Histogram: 1 0 0 0 0 0 0 0 0 0

Total # of neighbors = 8192
Ave neighs/atom = 64
Neighbor list builds = 0
Dangerous builds = 0
run 0
WARNING: No fixes with time integration, atoms won't move (src/verlet.cpp:60)
Per MPI rank memory allocation (min/avg/max) = 48.17 | 48.17 | 48.17 Mbytes
   Step          Temp          E_pair         E_mol          TotEng         Press     
         0   0             -1343.0508      0             -1343.0508     -239405.45    
Loop time of 6.25e-07 on 1 procs for 0 steps with 128 atoms

160.0% CPU use with 1 MPI tasks x 1 OpenMP threads

MPI task timing breakdown:
Section |  min time  |  avg time  |  max time  |%varavg| %total
---------------------------------------------------------------
Pair    | 0          | 0          | 0          |   0.0 |  0.00
Neigh   | 0          | 0          | 0          |   0.0 |  0.00
Comm    | 0          | 0          | 0          |   0.0 |  0.00
Output  | 0          | 0          | 0          |   0.0 |  0.00
Modify  | 0          | 0          | 0          |   0.0 |  0.00
Other   |            | 6.25e-07   |            |       |100.00

Nlocal:            128 ave         128 max         128 min
Histogram: 1 0 0 0 0 0 0 0 0 0
Nghost:           1113 ave        1113 max        1113 min
Histogram: 1 0 0 0 0 0 0 0 0 0
Neighs:              0 ave           0 max           0 min
Histogram: 1 0 0 0 0 0 0 0 0 0
FullNghs:         8192 ave        8192 max        8192 min
Histogram: 1 0 0 0 0 0 0 0 0 0

Total # of neighbors = 8192
Ave neighs/atom = 64
Neighbor list builds = 0
Dangerous builds = 0
run 0
WARNING: No fixes with time integration, atoms won't move (src/verlet.cpp:60)
Per MPI rank memory allocation (min/avg/max) = 48.17 | 48.17 | 48.17 Mbytes
   Step          Temp          E_pair         E_mol          TotEng         Press     
         0   0             -1343.1474      0             -1343.1474     -239636.25    
Loop time of 5.84e-07 on 1 procs for 0 steps with 128 atoms

0.0% CPU use with 1 MPI tasks x 1 OpenMP threads

MPI task timing breakdown:
Section |  min time  |  avg time  |  max time  |%varavg| %total
---------------------------------------------------------------
Pair    | 0          | 0          | 0          |   0.0 |  0.00
Neigh   | 0          | 0          | 0          |   0.0 |  0.00
Comm    | 0          | 0          | 0          |   0.0 |  0.00
Output  | 0          | 0          | 0          |   0.0 |  0.00
Modify  | 0          | 0          | 0          |   0.0 |  0.00
Other   |            | 5.84e-07   |            |       |100.00

Nlocal:            128 ave         128 max         128 min
Histogram: 1 0 0 0 0 0 0 0 0 0
Nghost:           1113 ave        1113 max        1113 min
Histogram: 1 0 0 0 0 0 0 0 0 0
Neighs:              0 ave           0 max           0 min
Histogram: 1 0 0 0 0 0 0 0 0 0
FullNghs:         8192 ave        8192 max        8192 min
Histogram: 1 0 0 0 0 0 0 0 0 0

Total # of neighbors = 8192
Ave neighs/atom = 64
Neighbor list builds = 0
Dangerous builds = 0
run 0
WARNING: No fixes with time integration, atoms won't move (src/verlet.cpp:60)
Per MPI rank memory allocation (min/avg/max) = 48.17 | 48.17 | 48.17 Mbytes
   Step          Temp          E_pair         E_mol          TotEng         Press     
         0   0             -1343.2012      0             -1343.2012     -239764.26    
Loop time of 9.17e-07 on 1 procs for 0 steps with 128 atoms

109.1% CPU use with 1 MPI tasks x 1 OpenMP threads

MPI task timing breakdown:
Section |  min time  |  avg time  |  max time  |%varavg| %total
---------------------------------------------------------------
Pair    | 0          | 0          | 0          |   0.0 |  0.00
Neigh   | 0          | 0          | 0          |   0.0 |  0.00
Comm    | 0          | 0          | 0          |   0.0 |  0.00
Output  | 0          | 0          | 0          |   0.0 |  0.00
Modify  | 0          | 0          | 0          |   0.0 |  0.00
Other   |            | 9.17e-07   |            |       |100.00

Nlocal:            128 ave         128 max         128 min
Histogram: 1 0 0 0 0 0 0 0 0 0
Nghost:           1113 ave        1113 max        1113 min
Histogram: 1 0 0 0 0 0 0 0 0 0
Neighs:              0 ave           0 max           0 min
Histogram: 1 0 0 0 0 0 0 0 0 0
FullNghs:         8192 ave        8192 max        8192 min
Histogram: 1 0 0 0 0 0 0 0 0 0

Total # of neighbors = 8192
Ave neighs/atom = 64
Neighbor list builds = 0
Dangerous builds = 0
run 0
WARNING: No fixes with time integration, atoms won't move (src/verlet.cpp:60)
Per MPI rank memory allocation (min/avg/max) = 48.17 | 48.17 | 48.17 Mbytes
   Step          Temp          E_pair         E_mol          TotEng         Press     
         0   0             -1343.2322      0             -1343.2322     -239837.73    
Loop time of 6.25e-07 on 1 procs for 0 steps with 128 atoms

160.0% CPU use with 1 MPI tasks x 1 OpenMP threads

MPI task timing breakdown:
Section |  min time  |  avg time  |  max time  |%varavg| %total
---------------------------------------------------------------
Pair    | 0          | 0          | 0          |   0.0 |  0.00
Neigh   | 0          | 0          | 0          |   0.0 |  0.00
Comm    | 0          | 0          | 0          |   0.0 |  0.00
Output  | 0          | 0          | 0          |   0.0 |  0.00
Modify  | 0          | 0          | 0          |   0.0 |  0.00
Other   |            | 6.25e-07   |            |       |100.00

Nlocal:            128 ave         128 max         128 min
Histogram: 1 0 0 0 0 0 0 0 0 0
Nghost:           1113 ave        1113 max        1113 min
Histogram: 1 0 0 0 0 0 0 0 0 0
Neighs:              0 ave           0 max           0 min
Histogram: 1 0 0 0 0 0 0 0 0 0
FullNghs:         8192 ave        8192 max        8192 min
Histogram: 1 0 0 0 0 0 0 0 0 0

Total # of neighbors = 8192
Ave neighs/atom = 64
Neighbor list builds = 0
Dangerous builds = 0
run 0
WARNING: No fixes with time integration, atoms won't move (src/verlet.cpp:60)
Per MPI rank memory allocation (min/avg/max) = 48.17 | 48.17 | 48.17 Mbytes
   Step          Temp          E_pair         E_mol          TotEng         Press     
         0   0             -1343.2507      0             -1343.2507     -239881.28    
Loop time of 9.17e-07 on 1 procs for 0 steps with 128 atoms

218.1% CPU use with 1 MPI tasks x 1 OpenMP threads

MPI task timing breakdown:
Section |  min time  |  avg time  |  max time  |%varavg| %total
---------------------------------------------------------------
Pair    | 0          | 0          | 0          |   0.0 |  0.00
Neigh   | 0          | 0          | 0          |   0.0 |  0.00
Comm    | 0          | 0          | 0          |   0.0 |  0.00
Output  | 0          | 0          | 0          |   0.0 |  0.00
Modify  | 0          | 0          | 0          |   0.0 |  0.00
Other   |            | 9.17e-07   |            |       |100.00

Nlocal:            128 ave         128 max         128 min
Histogram: 1 0 0 0 0 0 0 0 0 0
Nghost:           1113 ave        1113 max        1113 min
Histogram: 1 0 0 0 0 0 0 0 0 0
Neighs:              0 ave           0 max           0 min
Histogram: 1 0 0 0 0 0 0 0 0 0
FullNghs:         8192 ave        8192 max        8192 min
Histogram: 1 0 0 0 0 0 0 0 0 0

Total # of neighbors = 8192
Ave neighs/atom = 64
Neighbor list builds = 0
Dangerous builds = 0
run 0
WARNING: No fixes with time integration, atoms won't move (src/verlet.cpp:60)
Per MPI rank memory allocation (min/avg/max) = 48.17 | 48.17 | 48.17 Mbytes
   Step          Temp          E_pair         E_mol          TotEng         Press     
         0   0             -1343.2622      0             -1343.2622     -239907.9     
Loop time of 7.08e-07 on 1 procs for 0 steps with 128 atoms

141.2% CPU use with 1 MPI tasks x 1 OpenMP threads

MPI task timing breakdown:
Section |  min time  |  avg time  |  max time  |%varavg| %total
---------------------------------------------------------------
Pair    | 0          | 0          | 0          |   0.0 |  0.00
Neigh   | 0          | 0          | 0          |   0.0 |  0.00
Comm    | 0          | 0          | 0          |   0.0 |  0.00
Output  | 0          | 0          | 0          |   0.0 |  0.00
Modify  | 0          | 0          | 0          |   0.0 |  0.00
Other   |            | 7.08e-07   |            |       |100.00

Nlocal:            128 ave         128 max         128 min
Histogram: 1 0 0 0 0 0 0 0 0 0
Nghost:           1113 ave        1113 max        1113 min
Histogram: 1 0 0 0 0 0 0 0 0 0
Neighs:              0 ave           0 max           0 min
Histogram: 1 0 0 0 0 0 0 0 0 0
FullNghs:         8192 ave        8192 max        8192 min
Histogram: 1 0 0 0 0 0 0 0 0 0

Total # of neighbors = 8192
Ave neighs/atom = 64
Neighbor list builds = 0
Dangerous builds = 0
run 0
WARNING: No fixes with time integration, atoms won't move (src/verlet.cpp:60)
Per MPI rank memory allocation (min/avg/max) = 48.17 | 48.17 | 48.17 Mbytes
   Step          Temp          E_pair         E_mol          TotEng         Press     
         0   0             -1343.2695      0             -1343.2695     -239924.64    
Loop time of 6.66e-07 on 1 procs for 0 steps with 128 atoms

150.2% CPU use with 1 MPI tasks x 1 OpenMP threads

MPI task timing breakdown:
Section |  min time  |  avg time  |  max time  |%varavg| %total
---------------------------------------------------------------
Pair    | 0          | 0          | 0          |   0.0 |  0.00
Neigh   | 0          | 0          | 0          |   0.0 |  0.00
Comm    | 0          | 0          | 0          |   0.0 |  0.00
Output  | 0          | 0          | 0          |   0.0 |  0.00
Modify  | 0          | 0          | 0          |   0.0 |  0.00
Other   |            | 6.66e-07   |            |       |100.00

Nlocal:            128 ave         128 max         128 min
Histogram: 1 0 0 0 0 0 0 0 0 0
Nghost:           1113 ave        1113 max        1113 min
Histogram: 1 0 0 0 0 0 0 0 0 0
Neighs:              0 ave           0 max           0 min
Histogram: 1 0 0 0 0 0 0 0 0 0
FullNghs:         8192 ave        8192 max        8192 min
Histogram: 1 0 0 0 0 0 0 0 0 0

Total # of neighbors = 8192
Ave neighs/atom = 64
Neighbor list builds = 0
Dangerous builds = 0
run 0
WARNING: No fixes with time integration, atoms won't move (src/verlet.cpp:60)
Per MPI rank memory allocation (min/avg/max) = 48.17 | 48.17 | 48.17 Mbytes
   Step          Temp          E_pair         E_mol          TotEng         Press     
         0   0             -1343.2742      0             -1343.2742     -239935.46    
Loop time of 5.83e-07 on 1 procs for 0 steps with 128 atoms

171.5% CPU use with 1 MPI tasks x 1 OpenMP threads

MPI task timing breakdown:
Section |  min time  |  avg time  |  max time  |%varavg| %total
---------------------------------------------------------------
Pair    | 0          | 0          | 0          |   0.0 |  0.00
Neigh   | 0          | 0          | 0          |   0.0 |  0.00
Comm    | 0          | 0          | 0          |   0.0 |  0.00
Output  | 0          | 0          | 0          |   0.0 |  0.00
Modify  | 0          | 0          | 0          |   0.0 |  0.00
Other   |            | 5.83e-07   |            |       |100.00

Nlocal:            128 ave         128 max         128 min
Histogram: 1 0 0 0 0 0 0 0 0 0
Nghost:           1113 ave        1113 max        1113 min
Histogram: 1 0 0 0 0 0 0 0 0 0
Neighs:              0 ave           0 max           0 min
Histogram: 1 0 0 0 0 0 0 0 0 0
FullNghs:         8192 ave        8192 max        8192 min
Histogram: 1 0 0 0 0 0 0 0 0 0

Total # of neighbors = 8192
Ave neighs/atom = 64
Neighbor list builds = 0
Dangerous builds = 0
Total wall time: 0:00:14
